TITLE = "0D Field KU"
VARIABLES = N ,"KU"
ZONE DATAPACKING = POINT
    0.200000000000E+001    0.560151387005E-037
    0.520000000000E+002    0.228540991384E-017
    0.102000000000E+003    0.137440869789E-013
    0.152000000000E+003    0.742836999394E-012
    0.202000000000E+003    0.866050237945E-011
    0.252000000000E+003    0.487914842112E-010
    0.302000000000E+003    0.181728492429E-009
    0.352000000000E+003    0.520135244229E-009
    0.402000000000E+003    0.124255388666E-008
    0.452000000000E+003    0.260426036970E-008
    0.502000000000E+003    0.494556481114E-008
    0.552000000000E+003    0.869800389805E-008
    0.602000000000E+003    0.143885606810E-007
    0.652000000000E+003    0.226420409174E-007
    0.702000000000E+003    0.341824429087E-007
    0.752000000000E+003    0.498336723638E-007
    0.802000000000E+003    0.705195692148E-007
    0.852000000000E+003    0.972633941335E-007
    0.902000000000E+003    0.131187068801E-006
    0.952000000000E+003    0.173510346799E-006
    0.100200000000E+004    0.225549782399E-006
    0.105200000000E+004    0.288717003850E-006
    0.110200000000E+004    0.364516451803E-006
    0.115200000000E+004    0.454543409155E-006
    0.120200000000E+004    0.560482226707E-006
    0.125200000000E+004    0.684104428850E-006
    0.130200000000E+004    0.827266836627E-006
    0.135200000000E+004    0.991909893747E-006
    0.140200000000E+004    0.118005617494E-005
    0.145200000000E+004    0.139380863793E-005
    0.150200000000E+004    0.163534819193E-005
    0.155200000000E+004    0.190693114768E-005
    0.160200000000E+004    0.221088725786E-005
    0.165200000000E+004    0.254961798161E-005
    0.170200000000E+004    0.292559469360E-005
    0.175200000000E+004    0.334135706416E-005
    0.180200000000E+004    0.379951170387E-005
    0.185200000000E+004    0.430273085027E-005
    0.190200000000E+004    0.485375054102E-005
    0.195200000000E+004    0.545536818937E-005
    0.200200000000E+004    0.611044038324E-005
    0.205200000000E+004    0.682188132564E-005
    0.210200000000E+004    0.759266140602E-005
    0.215200000000E+004    0.842580576931E-005
    0.220200000000E+004    0.932439313414E-005
    0.225200000000E+004    0.102915548039E-004
    0.230200000000E+004    0.113304734668E-004
    0.235200000000E+004    0.124443813260E-004
    0.240200000000E+004    0.136365578686E-004
    0.245200000000E+004    0.149103281179E-004
    0.250200000000E+004    0.162690614527E-004
    0.255200000000E+004    0.177161704772E-004
    0.260200000000E+004    0.192551099658E-004
    0.265200000000E+004    0.208893760690E-004
    0.270200000000E+004    0.226225055437E-004
    0.275200000000E+004    0.244580745272E-004
    0.280200000000E+004    0.263996966531E-004
    0.285200000000E+004    0.284510211123E-004
    0.290200000000E+004    0.306157313391E-004
    0.295200000000E+004    0.328975441328E-004
    0.300200000000E+004    0.353002088011E-004
    0.305200000000E+004    0.378275064477E-004
    0.310200000000E+004    0.404832494524E-004
    0.315200000000E+004    0.432712807573E-004
    0.320200000000E+004    0.461954725387E-004
    0.325200000000E+004    0.492597243806E-004
    0.330200000000E+004    0.524679616839E-004
    0.335200000000E+004    0.558241347264E-004
    0.340200000000E+004    0.593322180256E-004
    0.345200000000E+004    0.629962097363E-004
    0.350200000000E+004    0.668201312222E-004
    0.355200000000E+004    0.708080266762E-004
    0.360200000000E+004    0.749639623353E-004
    0.365200000000E+004    0.792920250518E-004
    0.370200000000E+004    0.837963206144E-004
    0.375200000000E+004    0.884809725212E-004
    0.380200000000E+004    0.933501213447E-004
    0.385200000000E+004    0.984079242979E-004
    0.390200000000E+004    0.103658554865E-003
    0.395200000000E+004    0.109106202574E-003
    0.400200000000E+004    0.114755072623E-003
    0.405200000000E+004    0.120609384965E-003
    0.410200000000E+004    0.126673372826E-003
    0.415200000000E+004    0.132951281259E-003
    0.420200000000E+004    0.139447366258E-003
    0.425200000000E+004    0.146165894374E-003
    0.430200000000E+004    0.153111142454E-003
    0.435200000000E+004    0.160287397476E-003
    0.440200000000E+004    0.167698956412E-003
    0.445200000000E+004    0.175350125774E-003
    0.450200000000E+004    0.183245220540E-003
    0.455200000000E+004    0.191388562723E-003
    0.460200000000E+004    0.199784480196E-003
    0.465200000000E+004    0.208437306117E-003
    0.470200000000E+004    0.217351378738E-003
    0.475200000000E+004    0.226531041312E-003
    0.480200000000E+004    0.235980642061E-003
    0.485200000000E+004    0.245704534042E-003
    0.490200000000E+004    0.255707074533E-003
    0.495200000000E+004    0.265992623864E-003
    0.500200000000E+004    0.276565544101E-003
    0.505200000000E+004    0.287430198175E-003
    0.510200000000E+004    0.298590949565E-003
    0.515200000000E+004    0.310052162270E-003
    0.520200000000E+004    0.321818200850E-003
    0.525200000000E+004    0.333893430458E-003
    0.530200000000E+004    0.346282216618E-003
    0.535200000000E+004    0.358988924447E-003
    0.540200000000E+004    0.372017917443E-003
    0.545200000000E+004    0.385373556374E-003
    0.550200000000E+004    0.399060198685E-003
    0.555200000000E+004    0.413082198406E-003
    0.560200000000E+004    0.427443906247E-003
    0.565200000000E+004    0.442149669739E-003
    0.570200000000E+004    0.457203833246E-003
    0.575200000000E+004    0.472610737604E-003
    0.580200000000E+004    0.488374719192E-003
    0.585200000000E+004    0.504500108775E-003
    0.590200000000E+004    0.520991230621E-003
    0.595200000000E+004    0.537852402181E-003
    0.600200000000E+004    0.555087934159E-003
    0.605200000000E+004    0.572702130721E-003
    0.610200000000E+004    0.590699289656E-003
    0.615200000000E+004    0.609083702322E-003
    0.620200000000E+004    0.627859653098E-003
    0.625200000000E+004    0.647031418382E-003
    0.630200000000E+004    0.666603265547E-003
    0.635200000000E+004    0.686579452312E-003
    0.640200000000E+004    0.706964226650E-003
    0.645200000000E+004    0.727761826996E-003
    0.650200000000E+004    0.748976482511E-003
    0.655200000000E+004    0.770612413226E-003
    0.660200000000E+004    0.792673829842E-003
    0.665200000000E+004    0.815164933034E-003
    0.670200000000E+004    0.838089912423E-003
    0.675200000000E+004    0.861452945715E-003
    0.680200000000E+004    0.885258198318E-003
    0.685200000000E+004    0.909509823442E-003
    0.690200000000E+004    0.934211962394E-003
    0.695200000000E+004    0.959368744864E-003
    0.700200000000E+004    0.984984288985E-003
    0.705200000000E+004    0.101106270097E-002
    0.710200000000E+004    0.103760807429E-002
    0.715200000000E+004    0.106462448871E-002
    0.720200000000E+004    0.109211600965E-002
    0.725200000000E+004    0.112008668799E-002
    0.730200000000E+004    0.114854056037E-002
    0.735200000000E+004    0.117748164949E-002
    0.740200000000E+004    0.120691396440E-002
    0.745200000000E+004    0.123684150041E-002
    0.750200000000E+004    0.126726823855E-002
    0.755200000000E+004    0.129819814473E-002
    0.760200000000E+004    0.132963516887E-002
    0.765200000000E+004    0.136158324445E-002
    0.770200000000E+004    0.139404628859E-002
    0.775200000000E+004    0.142702820239E-002
    0.780200000000E+004    0.146053287127E-002
    0.785200000000E+004    0.149456416514E-002
    0.790200000000E+004    0.152912593819E-002
    0.795200000000E+004    0.156422202825E-002
    0.800200000000E+004    0.159985625583E-002
    0.805200000000E+004    0.163603242356E-002
    0.810200000000E+004    0.167275431586E-002
    0.815200000000E+004    0.171002569922E-002
    0.820200000000E+004    0.174785032257E-002
    0.825200000000E+004    0.178623191763E-002
    0.830200000000E+004    0.182517419893E-002
    0.835200000000E+004    0.186468086343E-002
    0.840200000000E+004    0.190475558979E-002
    0.845200000000E+004    0.194540203752E-002
    0.850200000000E+004    0.198662384654E-002
    0.855200000000E+004    0.202842463711E-002
    0.860200000000E+004    0.207080801020E-002
    0.865200000000E+004    0.211377754789E-002
    0.870200000000E+004    0.215733681362E-002
    0.875200000000E+004    0.220148935206E-002
    0.880200000000E+004    0.224623868863E-002
    0.885200000000E+004    0.229158832866E-002
    0.890200000000E+004    0.233754175675E-002
    0.895200000000E+004    0.238410243645E-002
    0.900200000000E+004    0.243127381042E-002
    0.905200000000E+004    0.247905930083E-002
    0.910200000000E+004    0.252746230975E-002
    0.915200000000E+004    0.257648621927E-002
    0.920200000000E+004    0.262613439127E-002
    0.925200000000E+004    0.267641016672E-002
    0.930200000000E+004    0.272731686499E-002
    0.935200000000E+004    0.277885778329E-002
    0.940200000000E+004    0.283103619655E-002
    0.945200000000E+004    0.288385535774E-002
    0.950200000000E+004    0.293731849828E-002
    0.955200000000E+004    0.299142882836E-002
    0.960200000000E+004    0.304618953693E-002
    0.965200000000E+004    0.310160379130E-002
    0.970200000000E+004    0.315767473642E-002
    0.975200000000E+004    0.321440549423E-002
    0.980200000000E+004    0.327179916330E-002
    0.985200000000E+004    0.332985881888E-002
    0.990200000000E+004    0.338858751331E-002
    0.995200000000E+004    0.344798827640E-002
    0.100020000000E+005    0.350806411566E-002
    0.100520000000E+005    0.356881801616E-002
    0.101020000000E+005    0.363025293994E-002
    0.101520000000E+005    0.369237182540E-002
    0.102020000000E+005    0.375517758666E-002
    0.102520000000E+005    0.381867311344E-002
    0.103020000000E+005    0.388286127125E-002
    0.103520000000E+005    0.394774490181E-002
    0.104020000000E+005    0.401332682344E-002
    0.104520000000E+005    0.407960983110E-002
    0.105020000000E+005    0.414659669613E-002
    0.105520000000E+005    0.421429016560E-002
    0.106020000000E+005    0.428269296170E-002
    0.106520000000E+005    0.435180778131E-002
    0.107020000000E+005    0.442163729601E-002
    0.107520000000E+005    0.449218415238E-002
    0.108020000000E+005    0.456345097244E-002
    0.108520000000E+005    0.463544035393E-002
    0.109020000000E+005    0.470815487026E-002
    0.109520000000E+005    0.478159707004E-002
    0.110020000000E+005    0.485576947650E-002
    0.110520000000E+005    0.493067458688E-002
    0.111020000000E+005    0.500631487223E-002
    0.111520000000E+005    0.508269277753E-002
    0.112020000000E+005    0.515981072208E-002
    0.112520000000E+005    0.523767109991E-002
    0.113020000000E+005    0.531627627994E-002
    0.113520000000E+005    0.539562860573E-002
    0.114020000000E+005    0.547573039504E-002
    0.114520000000E+005    0.555658393917E-002
    0.115020000000E+005    0.563819150252E-002
    0.115520000000E+005    0.572055532254E-002
    0.116020000000E+005    0.580367760999E-002
    0.116520000000E+005    0.588756054932E-002
    0.117020000000E+005    0.597220629904E-002
    0.117520000000E+005    0.605761699173E-002
    0.118020000000E+005    0.614379473372E-002
    0.118520000000E+005    0.623074160451E-002
    0.119020000000E+005    0.631845965624E-002
    0.119520000000E+005    0.640695091342E-002
    0.120020000000E+005    0.649621737294E-002
    0.120520000000E+005    0.658626100448E-002
    0.121020000000E+005    0.667708375090E-002
    0.121520000000E+005    0.676868752845E-002
    0.122020000000E+005    0.686107422668E-002
    0.122520000000E+005    0.695424570801E-002
    0.123020000000E+005    0.704820380719E-002
    0.123520000000E+005    0.714295033083E-002
    0.124020000000E+005    0.723848705725E-002
    0.124520000000E+005    0.733481573674E-002
    0.125020000000E+005    0.743193809187E-002
    0.125520000000E+005    0.752985581795E-002
    0.126020000000E+005    0.762857058304E-002
    0.126520000000E+005    0.772808402781E-002
    0.127020000000E+005    0.782839776499E-002
    0.127520000000E+005    0.792951337891E-002
    0.128020000000E+005    0.803143242514E-002
    0.128520000000E+005    0.813415643051E-002
    0.129020000000E+005    0.823768689341E-002
    0.129520000000E+005    0.834202528420E-002
    0.130020000000E+005    0.844717304550E-002
    0.130520000000E+005    0.855313159218E-002
    0.131020000000E+005    0.865990231100E-002
    0.131520000000E+005    0.876748656015E-002
    0.132020000000E+005    0.887588566881E-002
    0.132520000000E+005    0.898510093694E-002
    0.133020000000E+005    0.909513363543E-002
    0.133520000000E+005    0.920598500649E-002
    0.134020000000E+005    0.931765626401E-002
    0.134520000000E+005    0.943014859376E-002
    0.135020000000E+005    0.954346315324E-002
    0.135520000000E+005    0.965760107131E-002
    0.136020000000E+005    0.977256344770E-002
    0.136520000000E+005    0.988835135268E-002
    0.137020000000E+005    0.100049658270E-001
    0.137520000000E+005    0.101224078822E-001
    0.138020000000E+005    0.102406785010E-001
    0.138520000000E+005    0.103597786374E-001
    0.139020000000E+005    0.104797092173E-001
    0.139520000000E+005    0.106004711375E-001
    0.140020000000E+005    0.107220652660E-001
    0.140520000000E+005    0.108444924413E-001
    0.141020000000E+005    0.109677534719E-001
    0.141520000000E+005    0.110918491368E-001
    0.142020000000E+005    0.112167801859E-001
    0.142520000000E+005    0.113425473399E-001
    0.143020000000E+005    0.114691512908E-001
    0.143520000000E+005    0.115965927023E-001
    0.144020000000E+005    0.117248722086E-001
    0.144520000000E+005    0.118539904148E-001
    0.145020000000E+005    0.119839478962E-001
    0.145520000000E+005    0.121147451981E-001
    0.146020000000E+005    0.122463828364E-001
    0.146520000000E+005    0.123788612977E-001
    0.147020000000E+005    0.125121810395E-001
    0.147520000000E+005    0.126463424907E-001
    0.148020000000E+005    0.127813460516E-001
    0.148520000000E+005    0.129171920929E-001
    0.149020000000E+005    0.130538809559E-001
    0.149520000000E+005    0.131914129520E-001
    0.150020000000E+005    0.133297883630E-001
    0.150520000000E+005    0.134690074409E-001
    0.151020000000E+005    0.136090704090E-001
    0.151520000000E+005    0.137499774616E-001
    0.152020000000E+005    0.138917287644E-001
    0.152520000000E+005    0.140343244540E-001
    0.153020000000E+005    0.141777646379E-001
    0.153520000000E+005    0.143220493939E-001
    0.154020000000E+005    0.144671787702E-001
    0.154520000000E+005    0.146131527853E-001
    0.155020000000E+005    0.147599714286E-001
    0.155520000000E+005    0.149076346608E-001
    0.156020000000E+005    0.150561424138E-001
    0.156520000000E+005    0.152054945910E-001
    0.157020000000E+005    0.153556910671E-001
    0.157520000000E+005    0.155067316873E-001
    0.158020000000E+005    0.156586162675E-001
    0.158520000000E+005    0.158113445942E-001
    0.159020000000E+005    0.159649164246E-001
    0.159520000000E+005    0.161193314873E-001
    0.160020000000E+005    0.162745894825E-001
    0.160520000000E+005    0.164306900818E-001
    0.161020000000E+005    0.165876329288E-001
    0.161520000000E+005    0.167454176381E-001
    0.162020000000E+005    0.169040437955E-001
    0.162520000000E+005    0.170635109575E-001
    0.163020000000E+005    0.172238186519E-001
    0.163520000000E+005    0.173849663775E-001
    0.164020000000E+005    0.175469536053E-001
    0.164520000000E+005    0.177097797779E-001
    0.165020000000E+005    0.178734443103E-001
    0.165520000000E+005    0.180379465893E-001
    0.166020000000E+005    0.182032859732E-001
    0.166520000000E+005    0.183694617919E-001
    0.167020000000E+005    0.185364733466E-001
    0.167520000000E+005    0.187043199101E-001
    0.168020000000E+005    0.188730007273E-001
    0.168520000000E+005    0.190425150154E-001
    0.169020000000E+005    0.192128619643E-001
    0.169520000000E+005    0.193840407364E-001
    0.170020000000E+005    0.195560504663E-001
    0.170520000000E+005    0.197288902608E-001
    0.171020000000E+005    0.199025591988E-001
    0.171520000000E+005    0.200770563310E-001
    0.172020000000E+005    0.202523806807E-001
    0.172520000000E+005    0.204285312439E-001
    0.173020000000E+005    0.206055069896E-001
    0.173520000000E+005    0.207833068602E-001
    0.174020000000E+005    0.209619297711E-001
    0.174520000000E+005    0.211413746106E-001
    0.175020000000E+005    0.213216402398E-001
    0.175520000000E+005    0.215027254924E-001
    0.176020000000E+005    0.216846291750E-001
    0.176520000000E+005    0.218673500674E-001
    0.177020000000E+005    0.220508869232E-001
    0.177520000000E+005    0.222352384697E-001
    0.178020000000E+005    0.224204034084E-001
    0.178520000000E+005    0.226063804142E-001
    0.179020000000E+005    0.227931681360E-001
    0.179520000000E+005    0.229807651960E-001
    0.180020000000E+005    0.231691701900E-001
    0.180520000000E+005    0.233583816875E-001
    0.181020000000E+005    0.235483982324E-001
    0.181520000000E+005    0.237392183431E-001
    0.182020000000E+005    0.239308405128E-001
    0.182520000000E+005    0.241232632095E-001
    0.183020000000E+005    0.243164848757E-001
    0.183520000000E+005    0.245105039284E-001
    0.184020000000E+005    0.247053187590E-001
    0.184520000000E+005    0.249009277334E-001
    0.185020000000E+005    0.250973291924E-001
    0.185520000000E+005    0.252945214523E-001
    0.186020000000E+005    0.254925028047E-001
    0.186520000000E+005    0.256912715171E-001
    0.187020000000E+005    0.258908258328E-001
    0.187520000000E+005    0.260911639703E-001
    0.188020000000E+005    0.262922841237E-001
    0.188520000000E+005    0.264941844625E-001
    0.189020000000E+005    0.266968631318E-001
    0.189520000000E+005    0.269003182529E-001
    0.190020000000E+005    0.271045479236E-001
    0.190520000000E+005    0.273095502183E-001
    0.191020000000E+005    0.275153231881E-001
    0.191520000000E+005    0.277218648609E-001
    0.192020000000E+005    0.279291732410E-001
    0.192520000000E+005    0.281372463094E-001
    0.193020000000E+005    0.283460820233E-001
    0.193520000000E+005    0.285556783172E-001
    0.194020000000E+005    0.287660331029E-001
    0.194520000000E+005    0.289771442698E-001
    0.195020000000E+005    0.291890096851E-001
    0.195520000000E+005    0.294016271939E-001
    0.196020000000E+005    0.296149946191E-001
    0.196520000000E+005    0.298291097612E-001
    0.197020000000E+005    0.300439703984E-001
    0.197520000000E+005    0.302595742867E-001
    0.198020000000E+005    0.304759191605E-001
    0.198520000000E+005    0.306930027329E-001
    0.199020000000E+005    0.309108226958E-001
    0.199520000000E+005    0.311293767202E-001
    0.200020000000E+005    0.313486624562E-001
    0.200520000000E+005    0.315686775327E-001
    0.201020000000E+005    0.317894195576E-001
    0.201520000000E+005    0.320108861177E-001
    0.202020000000E+005    0.322330747792E-001
    0.202520000000E+005    0.324559830877E-001
    0.203020000000E+005    0.326796085691E-001
    0.203520000000E+005    0.329039487296E-001
    0.204020000000E+005    0.331290010554E-001
    0.204520000000E+005    0.333547630133E-001
    0.205020000000E+005    0.335812320500E-001
    0.205520000000E+005    0.338084055926E-001
    0.206020000000E+005    0.340362810484E-001
    0.206520000000E+005    0.342648558057E-001
    0.207020000000E+005    0.344941272337E-001
    0.207520000000E+005    0.347240926830E-001
    0.208020000000E+005    0.349547494862E-001
    0.208520000000E+005    0.351860949570E-001
    0.209020000000E+005    0.354181263910E-001
    0.209520000000E+005    0.356508410651E-001
    0.210020000000E+005    0.358842362379E-001
    0.210520000000E+005    0.361183091500E-001
    0.211020000000E+005    0.363530570240E-001
    0.211520000000E+005    0.365884770653E-001
    0.212020000000E+005    0.368245664621E-001
    0.212520000000E+005    0.370613223856E-001
    0.213020000000E+005    0.372987419898E-001
    0.213520000000E+005    0.375368224119E-001
    0.214020000000E+005    0.377755607719E-001
    0.214520000000E+005    0.380149541726E-001
    0.215020000000E+005    0.382549997008E-001
    0.215520000000E+005    0.384956944265E-001
    0.216020000000E+005    0.387370354041E-001
    0.216520000000E+005    0.389790196724E-001
    0.217020000000E+005    0.392216442544E-001
    0.217520000000E+005    0.394649061574E-001
    0.218020000000E+005    0.397088023733E-001
    0.218520000000E+005    0.399533298780E-001
    0.219020000000E+005    0.401984856324E-001
    0.219520000000E+005    0.404442665821E-001
    0.220020000000E+005    0.406906696582E-001
    0.220520000000E+005    0.409376917774E-001
    0.221020000000E+005    0.411853298421E-001
    0.221520000000E+005    0.414335807406E-001
    0.222020000000E+005    0.416824413469E-001
    0.222520000000E+005    0.419319085207E-001
    0.223020000000E+005    0.421819791077E-001
    0.223520000000E+005    0.424326499399E-001
    0.224020000000E+005    0.426839178356E-001
    0.224520000000E+005    0.429357796003E-001
    0.225020000000E+005    0.431882320265E-001
    0.225520000000E+005    0.434412718938E-001
    0.226020000000E+005    0.436948959691E-001
    0.226520000000E+005    0.439491010068E-001
    0.227020000000E+005    0.442038837481E-001
    0.227520000000E+005    0.444592409220E-001
    0.228020000000E+005    0.447151692452E-001
    0.228520000000E+005    0.449716654225E-001
    0.229020000000E+005    0.452287261472E-001
    0.229520000000E+005    0.454863481012E-001
    0.230020000000E+005    0.457445279552E-001
    0.230520000000E+005    0.460032623684E-001
    0.231020000000E+005    0.462625479888E-001
    0.231520000000E+005    0.465223814531E-001
    0.232020000000E+005    0.467827593872E-001
    0.232520000000E+005    0.470436784063E-001
    0.233020000000E+005    0.473051351152E-001
    0.233520000000E+005    0.475671261089E-001
    0.234020000000E+005    0.478296479724E-001
    0.234520000000E+005    0.480926972809E-001
    0.235020000000E+005    0.483562705996E-001
    0.235520000000E+005    0.486203644839E-001
    0.236020000000E+005    0.488849754797E-001
    0.236520000000E+005    0.491501001233E-001
    0.237020000000E+005    0.494157349422E-001
    0.237520000000E+005    0.496818764550E-001
    0.238020000000E+005    0.499485211719E-001
    0.238520000000E+005    0.502156655946E-001
    0.239020000000E+005    0.504833062162E-001
    0.239520000000E+005    0.507514395219E-001
    0.240020000000E+005    0.510200619879E-001
    0.240520000000E+005    0.512891700828E-001
    0.241020000000E+005    0.515587602672E-001
    0.241520000000E+005    0.518288289943E-001
    0.242020000000E+005    0.520993727100E-001
    0.242520000000E+005    0.523703878531E-001
    0.243020000000E+005    0.526418708557E-001
    0.243520000000E+005    0.529138181425E-001
    0.244020000000E+005    0.531862261314E-001
    0.244520000000E+005    0.534590912336E-001
    0.245020000000E+005    0.537324098536E-001
    0.245520000000E+005    0.540061783896E-001
    0.246020000000E+005    0.542803932340E-001
    0.246520000000E+005    0.545550507733E-001
    0.247020000000E+005    0.548301473885E-001
    0.247520000000E+005    0.551056794549E-001
    0.248020000000E+005    0.553816433422E-001
    0.248520000000E+005    0.556580354147E-001
    0.249020000000E+005    0.559348520313E-001
    0.249520000000E+005    0.562120895457E-001
    0.250020000000E+005    0.564897443072E-001
    0.250520000000E+005    0.567678126602E-001
    0.251020000000E+005    0.570462909451E-001
    0.251520000000E+005    0.573251754979E-001
    0.252020000000E+005    0.576044626504E-001
    0.252520000000E+005    0.578841487302E-001
    0.253020000000E+005    0.581642300608E-001
    0.253520000000E+005    0.584447029620E-001
    0.254020000000E+005    0.587255637496E-001
    0.254520000000E+005    0.590068087366E-001
    0.255020000000E+005    0.592884342325E-001
    0.255520000000E+005    0.595704365442E-001
    0.256020000000E+005    0.598528119755E-001
    0.256520000000E+005    0.601355568274E-001
    0.257020000000E+005    0.604186673979E-001
    0.257520000000E+005    0.607021399826E-001
    0.258020000000E+005    0.609859708744E-001
    0.258520000000E+005    0.612701563642E-001
    0.259020000000E+005    0.615546927409E-001
    0.259520000000E+005    0.618395762918E-001
    0.260020000000E+005    0.621248033024E-001
    0.260520000000E+005    0.624103700568E-001
    0.261020000000E+005    0.626962728374E-001
    0.261520000000E+005    0.629825079251E-001
    0.262020000000E+005    0.632690715995E-001
    0.262520000000E+005    0.635559601391E-001
    0.263020000000E+005    0.638431698218E-001
    0.263520000000E+005    0.641306969246E-001
    0.264020000000E+005    0.644185377245E-001
    0.264520000000E+005    0.647066884977E-001
    0.265020000000E+005    0.649951455204E-001
    0.265520000000E+005    0.652839050684E-001
    0.266020000000E+005    0.655729634170E-001
    0.266520000000E+005    0.658623168420E-001
    0.267020000000E+005    0.661519616191E-001
    0.267520000000E+005    0.664418940247E-001
    0.268020000000E+005    0.667321103358E-001
    0.268520000000E+005    0.670226068304E-001
    0.269020000000E+005    0.673133797870E-001
    0.269520000000E+005    0.676044254853E-001
    0.270020000000E+005    0.678957402057E-001
    0.270520000000E+005    0.681873202297E-001
    0.271020000000E+005    0.684791618402E-001
    0.271520000000E+005    0.687712613214E-001
    0.272020000000E+005    0.690636149596E-001
    0.272520000000E+005    0.693562190426E-001
    0.273020000000E+005    0.696490698605E-001
    0.273520000000E+005    0.699421637052E-001
    0.274020000000E+005    0.702354968708E-001
    0.274520000000E+005    0.705290656532E-001
    0.275020000000E+005    0.708228663507E-001
    0.275520000000E+005    0.711168952643E-001
    0.276020000000E+005    0.714111486974E-001
    0.276520000000E+005    0.717056229567E-001
    0.277020000000E+005    0.720003143515E-001
    0.277520000000E+005    0.722952191944E-001
    0.278020000000E+005    0.725903338012E-001
    0.278520000000E+005    0.728856544905E-001
    0.279020000000E+005    0.731811775844E-001
    0.279520000000E+005    0.734768994083E-001
    0.280020000000E+005    0.737728162912E-001
    0.280520000000E+005    0.740689245661E-001
    0.281020000000E+005    0.743652205699E-001
    0.281520000000E+005    0.746617006436E-001
    0.282020000000E+005    0.749583611324E-001
    0.282520000000E+005    0.752551983853E-001
    0.283020000000E+005    0.755522087559E-001
    0.283520000000E+005    0.758493886018E-001
    0.284020000000E+005    0.761467342852E-001
    0.284520000000E+005    0.764442421730E-001
    0.285020000000E+005    0.767419086372E-001
    0.285520000000E+005    0.770397300545E-001
    0.286020000000E+005    0.773377028068E-001
    0.286520000000E+005    0.776358232812E-001
    0.287020000000E+005    0.779340878697E-001
    0.287520000000E+005    0.782324929695E-001
    0.288020000000E+005    0.785310349831E-001
    0.288520000000E+005    0.788297103188E-001
    0.289020000000E+005    0.791285153904E-001
    0.289520000000E+005    0.794274466174E-001
    0.290020000000E+005    0.797265004257E-001
    0.290520000000E+005    0.800256732467E-001
    0.291020000000E+005    0.803249615182E-001
    0.291520000000E+005    0.806243616837E-001
    0.292020000000E+005    0.809238701928E-001
    0.292520000000E+005    0.812234835018E-001
    0.293020000000E+005    0.815231980729E-001
    0.293520000000E+005    0.818230103755E-001
    0.294020000000E+005    0.821229168853E-001
    0.294520000000E+005    0.824229140851E-001
    0.295020000000E+005    0.827229984645E-001
    0.295520000000E+005    0.830231665198E-001
    0.296020000000E+005    0.833234147541E-001
    0.296520000000E+005    0.836237396778E-001
    0.297020000000E+005    0.839241378083E-001
    0.297520000000E+005    0.842246056702E-001
    0.298020000000E+005    0.845251397960E-001
    0.298520000000E+005    0.848257367253E-001
    0.299020000000E+005    0.851263930057E-001
    0.299520000000E+005    0.854271051922E-001
    0.300020000000E+005    0.857278698473E-001
    0.300520000000E+005    0.860286835414E-001
    0.301020000000E+005    0.863295428527E-001
    0.301520000000E+005    0.866304443673E-001
    0.302020000000E+005    0.869313846795E-001
    0.302520000000E+005    0.872323603918E-001
    0.303020000000E+005    0.875333681152E-001
    0.303520000000E+005    0.878344044687E-001
    0.304020000000E+005    0.881354660799E-001
    0.304520000000E+005    0.884365495845E-001
    0.305020000000E+005    0.887376516270E-001
    0.305520000000E+005    0.890387688600E-001
    0.306020000000E+005    0.893398979452E-001
    0.306520000000E+005    0.896410355531E-001
    0.307020000000E+005    0.899421783630E-001
    0.307520000000E+005    0.902433230634E-001
    0.308020000000E+005    0.905444663515E-001
    0.308520000000E+005    0.908456049337E-001
    0.309020000000E+005    0.911467355254E-001
    0.309520000000E+005    0.914478548509E-001
    0.310020000000E+005    0.917489596440E-001
    0.310520000000E+005    0.920500466477E-001
    0.311020000000E+005    0.923511126149E-001
    0.311520000000E+005    0.926521543076E-001
    0.312020000000E+005    0.929531684977E-001
    0.312520000000E+005    0.932541519664E-001
    0.313020000000E+005    0.935551015047E-001
    0.313520000000E+005    0.938560139131E-001
    0.314020000000E+005    0.941568860018E-001
    0.314520000000E+005    0.944577145910E-001
    0.315020000000E+005    0.947584965109E-001
    0.315520000000E+005    0.950592286017E-001
    0.316020000000E+005    0.953599077138E-001
    0.316520000000E+005    0.956605307076E-001
    0.317020000000E+005    0.959610944536E-001
    0.317520000000E+005    0.962615958325E-001