TITLE = "0D Field KU"
VARIABLES = N ,"KU"
ZONE DATAPACKING = POINT
    0.200000000000E+001    0.560151387005E-037
    0.520000000000E+002    0.620810094367E-033
    0.102000000000E+003    0.244619623732E-026
    0.152000000000E+003    0.109784478970E-022
    0.202000000000E+003    0.327278320631E-020
    0.252000000000E+003    0.220505361777E-018
    0.302000000000E+003    0.577890703151E-017
    0.352000000000E+003    0.795040372922E-016
    0.402000000000E+003    0.689414823133E-015
    0.452000000000E+003    0.424235493314E-014
    0.502000000000E+003    0.200770528760E-013
    0.552000000000E+003    0.773309424106E-013
    0.602000000000E+003    0.252596845493E-012
    0.652000000000E+003    0.721504400718E-012
    0.702000000000E+003    0.184472805708E-011
    0.752000000000E+003    0.429913019449E-011
    0.802000000000E+003    0.926375125909E-011
    0.852000000000E+003    0.186683398998E-010
    0.902000000000E+003    0.355094256030E-010
    0.952000000000E+003    0.642359848020E-010
    0.100200000000E+004    0.111203892248E-009
    0.105200000000E+004    0.185195830992E-009
    0.110200000000E+004    0.298001308130E-009
    0.115200000000E+004    0.465049919107E-009
    0.120200000000E+004    0.706089913425E-009
    0.125200000000E+004    0.104590332794E-008
    0.130200000000E+004    0.151504848033E-008
    0.135200000000E+004    0.215062050928E-008
    0.140200000000E+004    0.299702090655E-008
    0.145200000000E+004    0.410672755258E-008
    0.150200000000E+004    0.554105757569E-008
    0.155200000000E+004    0.737091630239E-008
    0.160200000000E+004    0.967752644930E-008
    0.165200000000E+004    0.125531323337E-007
    0.170200000000E+004    0.161016743198E-007
    0.175200000000E+004    0.204394292160E-007
    0.180200000000E+004    0.256956130168E-007
    0.185200000000E+004    0.320129432084E-007
    0.190200000000E+004    0.395481587585E-007
    0.195200000000E+004    0.484724968211E-007
    0.200200000000E+004    0.589721259335E-007
    0.205200000000E+004    0.712485358258E-007
    0.210200000000E+004    0.855188838629E-007
    0.215200000000E+004    0.102016297976E-006
    0.220200000000E+004    0.120990136058E-006
    0.225200000000E+004    0.142706202219E-006
    0.230200000000E+004    0.167446920908E-006
    0.235200000000E+004    0.195511470536E-006
    0.240200000000E+004    0.227215878799E-006
    0.245200000000E+004    0.262893082064E-006
    0.250200000000E+004    0.302892950809E-006
    0.255200000000E+004    0.347582282371E-006
    0.260200000000E+004    0.397344761825E-006
    0.265200000000E+004    0.452580891862E-006
    0.270200000000E+004    0.513707893016E-006
    0.275200000000E+004    0.581159576167E-006
    0.280200000000E+004    0.655386189843E-006
    0.285200000000E+004    0.736854245104E-006
    0.290200000000E+004    0.826046320508E-006
    0.295200000000E+004    0.923460848756E-006
    0.300200000000E+004    0.102961188566E-005
    0.305200000000E+004    0.114502886176E-005
    0.310200000000E+004    0.127025631710E-005
    0.315200000000E+004    0.140585362063E-005
    0.320200000000E+004    0.155239467595E-005
    0.325200000000E+004    0.171046761616E-005
    0.330200000000E+004    0.188067449009E-005
    0.335200000000E+004    0.206363094189E-005
    0.340200000000E+004    0.225996588424E-005
    0.345200000000E+004    0.247032116516E-005
    0.350200000000E+004    0.269535122780E-005
    0.355200000000E+004    0.293572276366E-005
    0.360200000000E+004    0.319211436023E-005
    0.365200000000E+004    0.346521614524E-005
    0.370200000000E+004    0.375572942958E-005
    0.375200000000E+004    0.406436635095E-005
    0.380200000000E+004    0.439184951903E-005
    0.385200000000E+004    0.473891166158E-005
    0.390200000000E+004    0.510629527038E-005
    0.395200000000E+004    0.549475224628E-005
    0.400200000000E+004    0.590504354351E-005
    0.405200000000E+004    0.633793881460E-005
    0.410200000000E+004    0.679421605786E-005
    0.415200000000E+004    0.727466126939E-005
    0.420200000000E+004    0.778006810106E-005
    0.425200000000E+004    0.831123752406E-005
    0.430200000000E+004    0.886897749674E-005
    0.435200000000E+004    0.945410263515E-005
    0.440200000000E+004    0.100674338855E-004
    0.445200000000E+004    0.107097981989E-004
    0.450200000000E+004    0.113820282100E-004
    0.455200000000E+004    0.120849619218E-004
    0.460200000000E+004    0.128194423975E-004
    0.465200000000E+004    0.135863174609E-004
    0.470200000000E+004    0.143864394041E-004
    0.475200000000E+004    0.152206646992E-004
    0.480200000000E+004    0.160898537145E-004
    0.485200000000E+004    0.169948704332E-004
    0.490200000000E+004    0.179365821754E-004
    0.495200000000E+004    0.189158593258E-004
    0.500200000000E+004    0.199335750698E-004
    0.505200000000E+004    0.209906051369E-004
    0.510200000000E+004    0.220878275540E-004
    0.515200000000E+004    0.232261224044E-004
    0.520200000000E+004    0.244063715917E-004
    0.525200000000E+004    0.256294586063E-004
    0.530200000000E+004    0.268962682952E-004
    0.535200000000E+004    0.282076866356E-004
    0.540200000000E+004    0.295646005151E-004
    0.545200000000E+004    0.309678975200E-004
    0.550200000000E+004    0.324184657325E-004
    0.555200000000E+004    0.339171935356E-004
    0.560200000000E+004    0.354649694229E-004
    0.565200000000E+004    0.370626818120E-004
    0.570200000000E+004    0.387112188600E-004
    0.575200000000E+004    0.404114682811E-004
    0.580200000000E+004    0.421643171692E-004
    0.585200000000E+004    0.439706518270E-004
    0.590200000000E+004    0.458313576031E-004
    0.595200000000E+004    0.477473187374E-004
    0.600200000000E+004    0.497194182128E-004
    0.605200000000E+004    0.517485376099E-004
    0.610200000000E+004    0.538355569640E-004
    0.615200000000E+004    0.559813546231E-004
    0.620200000000E+004    0.581868071079E-004
    0.625200000000E+004    0.604527889775E-004
    0.630200000000E+004    0.627801727009E-004
    0.635200000000E+004    0.651698285362E-004
    0.640200000000E+004    0.676226244178E-004
    0.645200000000E+004    0.701394258461E-004
    0.650200000000E+004    0.727210957811E-004
    0.655200000000E+004    0.753684945343E-004
    0.660200000000E+004    0.780824796630E-004
    0.665200000000E+004    0.808639058659E-004
    0.670200000000E+004    0.837136248841E-004
    0.675200000000E+004    0.866324854087E-004
    0.680200000000E+004    0.896213329951E-004
    0.685200000000E+004    0.926810099828E-004
    0.690200000000E+004    0.958123554175E-004
    0.695200000000E+004    0.990162049739E-004
    0.700200000000E+004    0.102293390877E-003
    0.705200000000E+004    0.105644741824E-003
    0.710200000000E+004    0.109071082912E-003
    0.715200000000E+004    0.112573235563E-003
    0.720200000000E+004    0.116152017465E-003
    0.725200000000E+004    0.119808242512E-003
    0.730200000000E+004    0.123542720751E-003
    0.735200000000E+004    0.127356258326E-003
    0.740200000000E+004    0.131249657428E-003
    0.745200000000E+004    0.135223716235E-003
    0.750200000000E+004    0.139279228858E-003
    0.755200000000E+004    0.143416985291E-003
    0.760200000000E+004    0.147637771363E-003
    0.765200000000E+004    0.151942368696E-003
    0.770200000000E+004    0.156331554672E-003
    0.775200000000E+004    0.160806102394E-003
    0.780200000000E+004    0.165366780655E-003
    0.785200000000E+004    0.170014353898E-003
    0.790200000000E+004    0.174749582180E-003
    0.795200000000E+004    0.179573221130E-003
    0.800200000000E+004    0.184486021924E-003
    0.805200000000E+004    0.189488731246E-003
    0.810200000000E+004    0.194582091272E-003
    0.815200000000E+004    0.199766839649E-003
    0.820200000000E+004    0.205043709470E-003
    0.825200000000E+004    0.210413429258E-003
    0.830200000000E+004    0.215876722937E-003
    0.835200000000E+004    0.221434309812E-003
    0.840200000000E+004    0.227086904539E-003
    0.845200000000E+004    0.232835217111E-003
    0.850200000000E+004    0.238679952839E-003
    0.855200000000E+004    0.244621812345E-003
    0.860200000000E+004    0.250661491552E-003
    0.865200000000E+004    0.256799681675E-003
    0.870200000000E+004    0.263037069206E-003
    0.875200000000E+004    0.269374335902E-003
    0.880200000000E+004    0.275812158768E-003
    0.885200000000E+004    0.282351210041E-003
    0.890200000000E+004    0.288992157190E-003
    0.895200000000E+004    0.295735662903E-003
    0.900200000000E+004    0.302582385091E-003
    0.905200000000E+004    0.309532976885E-003
    0.910200000000E+004    0.316588086635E-003
    0.915200000000E+004    0.323748357902E-003
    0.920200000000E+004    0.331014429451E-003
    0.925200000000E+004    0.338386935242E-003
    0.930200000000E+004    0.345866504425E-003
    0.935200000000E+004    0.353453761343E-003
    0.940200000000E+004    0.361149325531E-003
    0.945200000000E+004    0.368953811726E-003
    0.950200000000E+004    0.376867829868E-003
    0.955200000000E+004    0.384891985104E-003
    0.960200000000E+004    0.393026877782E-003
    0.965200000000E+004    0.401273103453E-003
    0.970200000000E+004    0.409631252865E-003
    0.975200000000E+004    0.418101911966E-003
    0.980200000000E+004    0.426685661911E-003
    0.985200000000E+004    0.435383079070E-003
    0.990200000000E+004    0.444194735038E-003
    0.995200000000E+004    0.453121196644E-003
    0.100020000000E+005    0.462163025950E-003
    0.100520000000E+005    0.471320780256E-003
    0.101020000000E+005    0.480595012102E-003
    0.101520000000E+005    0.489986269265E-003
    0.102020000000E+005    0.499495094771E-003
    0.102520000000E+005    0.509122026902E-003
    0.103020000000E+005    0.518867599212E-003
    0.103520000000E+005    0.528732340538E-003
    0.104020000000E+005    0.538716775005E-003
    0.104520000000E+005    0.548821422036E-003
    0.105020000000E+005    0.559046796353E-003
    0.105520000000E+005    0.569393407979E-003
    0.106020000000E+005    0.579861762247E-003
    0.106520000000E+005    0.590452359809E-003
    0.107020000000E+005    0.601165696651E-003
    0.107520000000E+005    0.612002264107E-003
    0.108020000000E+005    0.622962548872E-003
    0.108520000000E+005    0.634047033010E-003
    0.109020000000E+005    0.645256193959E-003
    0.109520000000E+005    0.656590504539E-003
    0.110020000000E+005    0.668050432955E-003
    0.110520000000E+005    0.679636442808E-003
    0.111020000000E+005    0.691348993105E-003
    0.111520000000E+005    0.703188538283E-003
    0.112020000000E+005    0.715155528215E-003
    0.112520000000E+005    0.727250408226E-003
    0.113020000000E+005    0.739473619106E-003
    0.113520000000E+005    0.751825597109E-003
    0.114020000000E+005    0.764306773961E-003
    0.114520000000E+005    0.776917576871E-003
    0.115020000000E+005    0.789658428541E-003
    0.115520000000E+005    0.802529747181E-003
    0.116020000000E+005    0.815531946528E-003
    0.116520000000E+005    0.828665435856E-003
    0.117020000000E+005    0.841930619995E-003
    0.117520000000E+005    0.855327899331E-003
    0.118020000000E+005    0.868857669819E-003
    0.118520000000E+005    0.882520322985E-003
    0.119020000000E+005    0.896316245940E-003
    0.119520000000E+005    0.910245821393E-003
    0.120020000000E+005    0.924309427665E-003
    0.120520000000E+005    0.938507438709E-003
    0.121020000000E+005    0.952840224123E-003
    0.121520000000E+005    0.967308149159E-003
    0.122020000000E+005    0.981911574733E-003
    0.122520000000E+005    0.996650857430E-003
    0.123020000000E+005    0.101152634951E-002
    0.123520000000E+005    0.102653839893E-002
    0.124020000000E+005    0.104168734933E-002
    0.124520000000E+005    0.105697354011E-002
    0.125020000000E+005    0.107239730637E-002
    0.125520000000E+005    0.108795897899E-002
    0.126020000000E+005    0.110365888458E-002
    0.126520000000E+005    0.111949734554E-002
    0.127020000000E+005    0.113547468004E-002
    0.127520000000E+005    0.115159120202E-002
    0.128020000000E+005    0.116784722124E-002
    0.128520000000E+005    0.118424304325E-002
    0.129020000000E+005    0.120077896943E-002
    0.129520000000E+005    0.121745529703E-002
    0.130020000000E+005    0.123427231914E-002
    0.130520000000E+005    0.125123032469E-002
    0.131020000000E+005    0.126832959853E-002
    0.131520000000E+005    0.128557042134E-002
    0.132020000000E+005    0.130295306973E-002
    0.132520000000E+005    0.132047781617E-002
    0.133020000000E+005    0.133814492909E-002
    0.133520000000E+005    0.135595467284E-002
    0.134020000000E+005    0.137390730771E-002
    0.134520000000E+005    0.139200308996E-002
    0.135020000000E+005    0.141024227183E-002
    0.135520000000E+005    0.142862510149E-002
    0.136020000000E+005    0.144715182315E-002
    0.136520000000E+005    0.146582267695E-002
    0.137020000000E+005    0.148463789910E-002
    0.137520000000E+005    0.150359772179E-002
    0.138020000000E+005    0.152270237327E-002
    0.138520000000E+005    0.154195207784E-002
    0.139020000000E+005    0.156134705586E-002
    0.139520000000E+005    0.158088752375E-002
    0.140020000000E+005    0.160057369402E-002
    0.140520000000E+005    0.162040577524E-002
    0.141020000000E+005    0.164038397209E-002
    0.141520000000E+005    0.166050848537E-002
    0.142020000000E+005    0.168077951199E-002
    0.142520000000E+005    0.170119724501E-002
    0.143020000000E+005    0.172176187364E-002
    0.143520000000E+005    0.174247358325E-002
    0.144020000000E+005    0.176333255539E-002
    0.144520000000E+005    0.178433896774E-002
    0.145020000000E+005    0.180549299420E-002
    0.145520000000E+005    0.182679480486E-002
    0.146020000000E+005    0.184824456601E-002
    0.146520000000E+005    0.186984244018E-002
    0.147020000000E+005    0.189158858614E-002
    0.147520000000E+005    0.191348315890E-002
    0.148020000000E+005    0.193552630972E-002
    0.148520000000E+005    0.195771818613E-002
    0.149020000000E+005    0.198005893193E-002
    0.149520000000E+005    0.200254868719E-002
    0.150020000000E+005    0.202518758828E-002
    0.150520000000E+005    0.204797576789E-002
    0.151020000000E+005    0.207091335502E-002
    0.151520000000E+005    0.209400047500E-002
    0.152020000000E+005    0.211723724952E-002
    0.152520000000E+005    0.214062379661E-002
    0.153020000000E+005    0.216416023063E-002
    0.153520000000E+005    0.218784666234E-002
    0.154020000000E+005    0.221168319885E-002
    0.154520000000E+005    0.223566994367E-002
    0.155020000000E+005    0.225980699672E-002
    0.155520000000E+005    0.228409445432E-002
    0.156020000000E+005    0.230853240923E-002
    0.156520000000E+005    0.233312095063E-002
    0.157020000000E+005    0.235786016416E-002
    0.157520000000E+005    0.238275013188E-002
    0.158020000000E+005    0.240779093230E-002
    0.158520000000E+005    0.243298264044E-002
    0.159020000000E+005    0.245832532775E-002
    0.159520000000E+005    0.248381906221E-002
    0.160020000000E+005    0.250946390831E-002
    0.160520000000E+005    0.253525992702E-002
    0.161020000000E+005    0.256120717587E-002
    0.161520000000E+005    0.258730570889E-002
    0.162020000000E+005    0.261355557665E-002
    0.162520000000E+005    0.263995682627E-002
    0.163020000000E+005    0.266650950141E-002
    0.163520000000E+005    0.269321364234E-002
    0.164020000000E+005    0.272006928587E-002
    0.164520000000E+005    0.274707646545E-002
    0.165020000000E+005    0.277423521109E-002
    0.165520000000E+005    0.280154554942E-002
    0.166020000000E+005    0.282900750369E-002
    0.166520000000E+005    0.285662109376E-002
    0.167020000000E+005    0.288438633614E-002
    0.167520000000E+005    0.291230324395E-002
    0.168020000000E+005    0.294037182701E-002
    0.168520000000E+005    0.296859209179E-002
    0.169020000000E+005    0.299696404145E-002
    0.169520000000E+005    0.302548767582E-002
    0.170020000000E+005    0.305416299142E-002
    0.170520000000E+005    0.308298998148E-002
    0.171020000000E+005    0.311196863592E-002
    0.171520000000E+005    0.314109894139E-002
    0.172020000000E+005    0.317038088128E-002
    0.172520000000E+005    0.319981443569E-002
    0.173020000000E+005    0.322939958152E-002
    0.173520000000E+005    0.325913629240E-002
    0.174020000000E+005    0.328902453873E-002
    0.174520000000E+005    0.331906428768E-002
    0.175020000000E+005    0.334925550321E-002
    0.175520000000E+005    0.337959814606E-002
    0.176020000000E+005    0.341009217377E-002
    0.176520000000E+005    0.344073754070E-002
    0.177020000000E+005    0.347153419805E-002
    0.177520000000E+005    0.350248209382E-002
    0.178020000000E+005    0.353358117290E-002
    0.178520000000E+005    0.356483137697E-002
    0.179020000000E+005    0.359623264459E-002
    0.179520000000E+005    0.362778491119E-002
    0.180020000000E+005    0.365948810904E-002
    0.180520000000E+005    0.369134216733E-002
    0.181020000000E+005    0.372334701212E-002
    0.181520000000E+005    0.375550256639E-002
    0.182020000000E+005    0.378780875002E-002
    0.182520000000E+005    0.382026547983E-002
    0.183020000000E+005    0.385287266953E-002
    0.183520000000E+005    0.388563022978E-002
    0.184020000000E+005    0.391853806818E-002
    0.184520000000E+005    0.395159608928E-002
    0.185020000000E+005    0.398480419458E-002
    0.185520000000E+005    0.401816228258E-002
    0.186020000000E+005    0.405167024874E-002
    0.186520000000E+005    0.408532798553E-002
    0.187020000000E+005    0.411913538238E-002
    0.187520000000E+005    0.415309232575E-002
    0.188020000000E+005    0.418719869909E-002
    0.188520000000E+005    0.422145438288E-002
    0.189020000000E+005    0.425585925461E-002
    0.189520000000E+005    0.429041318882E-002
    0.190020000000E+005    0.432511605712E-002
    0.190520000000E+005    0.435996772814E-002
    0.191020000000E+005    0.439496806760E-002
    0.191520000000E+005    0.443011693827E-002
    0.192020000000E+005    0.446541420000E-002
    0.192520000000E+005    0.450085970972E-002
    0.193020000000E+005    0.453645332146E-002
    0.193520000000E+005    0.457219488634E-002
    0.194020000000E+005    0.460808425261E-002
    0.194520000000E+005    0.464412126563E-002
    0.195020000000E+005    0.468030576789E-002
    0.195520000000E+005    0.471663759902E-002
    0.196020000000E+005    0.475311659579E-002
    0.196520000000E+005    0.478974259209E-002
    0.197020000000E+005    0.482651541901E-002
    0.197520000000E+005    0.486343490476E-002
    0.198020000000E+005    0.490050087474E-002
    0.198520000000E+005    0.493771315156E-002
    0.199020000000E+005    0.497507155499E-002
    0.199520000000E+005    0.501257590202E-002
    0.200020000000E+005    0.505022600683E-002
    0.200520000000E+005    0.508802168079E-002
    0.201020000000E+005    0.512596273253E-002
    0.201520000000E+005    0.516404896786E-002
    0.202020000000E+005    0.520228018986E-002
    0.202520000000E+005    0.524065619881E-002
    0.203020000000E+005    0.527917679230E-002
    0.203520000000E+005    0.531784176515E-002
    0.204020000000E+005    0.535665090942E-002
    0.204520000000E+005    0.539560401448E-002
    0.205020000000E+005    0.543470086695E-002
    0.205520000000E+005    0.547394125073E-002
    0.206020000000E+005    0.551332494702E-002
    0.206520000000E+005    0.555285173433E-002
    0.207020000000E+005    0.559252138845E-002
    0.207520000000E+005    0.563233368251E-002
    0.208020000000E+005    0.567228838697E-002
    0.208520000000E+005    0.571238526959E-002
    0.209020000000E+005    0.575262409547E-002
    0.209520000000E+005    0.579300462706E-002
    0.210020000000E+005    0.583352662414E-002
    0.210520000000E+005    0.587418984384E-002
    0.211020000000E+005    0.591499404066E-002
    0.211520000000E+005    0.595593896649E-002
    0.212020000000E+005    0.599702437056E-002
    0.212520000000E+005    0.603824999952E-002
    0.213020000000E+005    0.607961559736E-002
    0.213520000000E+005    0.612112090549E-002
    0.214020000000E+005    0.616276566271E-002
    0.214520000000E+005    0.620454960522E-002
    0.215020000000E+005    0.624647246663E-002
    0.215520000000E+005    0.628853397797E-002
    0.216020000000E+005    0.633073386771E-002
    0.216520000000E+005    0.637307186174E-002
    0.217020000000E+005    0.641554768338E-002
    0.217520000000E+005    0.645816105341E-002
    0.218020000000E+005    0.650091169003E-002
    0.218520000000E+005    0.654379930889E-002
    0.219020000000E+005    0.658682362311E-002
    0.219520000000E+005    0.662998434328E-002
    0.220020000000E+005    0.667328117744E-002
    0.220520000000E+005    0.671671383113E-002
    0.221020000000E+005    0.676028200736E-002
    0.221520000000E+005    0.680398540664E-002
    0.222020000000E+005    0.684782372693E-002
    0.222520000000E+005    0.689179666373E-002
    0.223020000000E+005    0.693590390999E-002
    0.223520000000E+005    0.698014515621E-002
    0.224020000000E+005    0.702452009038E-002
    0.224520000000E+005    0.706902839802E-002
    0.225020000000E+005    0.711366976215E-002
    0.225520000000E+005    0.715844386336E-002
    0.226020000000E+005    0.720335037971E-002
    0.226520000000E+005    0.724838898684E-002
    0.227020000000E+005    0.729355935789E-002
    0.227520000000E+005    0.733886116357E-002
    0.228020000000E+005    0.738429407213E-002
    0.228520000000E+005    0.742985774936E-002
    0.229020000000E+005    0.747555185864E-002
    0.229520000000E+005    0.752137606088E-002
    0.230020000000E+005    0.756733001457E-002
    0.230520000000E+005    0.761341337577E-002
    0.231020000000E+005    0.765962579810E-002
    0.231520000000E+005    0.770596693275E-002
    0.232020000000E+005    0.775243642849E-002
    0.232520000000E+005    0.779903393169E-002
    0.233020000000E+005    0.784575908630E-002
    0.233520000000E+005    0.789261153386E-002
    0.234020000000E+005    0.793959091352E-002
    0.234520000000E+005    0.798669686201E-002
    0.235020000000E+005    0.803392901366E-002
    0.235520000000E+005    0.808128700040E-002
    0.236020000000E+005    0.812877045177E-002
    0.236520000000E+005    0.817637899492E-002
    0.237020000000E+005    0.822411225462E-002
    0.237520000000E+005    0.827196985325E-002
    0.238020000000E+005    0.831995141083E-002
    0.238520000000E+005    0.836805654497E-002
    0.239020000000E+005    0.841628487093E-002
    0.239520000000E+005    0.846463600158E-002
    0.240020000000E+005    0.851310954743E-002
    0.240520000000E+005    0.856170511660E-002
    0.241020000000E+005    0.861042231487E-002
    0.241520000000E+005    0.865926074564E-002
    0.242020000000E+005    0.870822000998E-002
    0.242520000000E+005    0.875729970657E-002
    0.243020000000E+005    0.880649943176E-002
    0.243520000000E+005    0.885581877953E-002
    0.244020000000E+005    0.890525734151E-002
    0.244520000000E+005    0.895481470696E-002
    0.245020000000E+005    0.900449046284E-002
    0.245520000000E+005    0.905428419371E-002
    0.246020000000E+005    0.910419548183E-002
    0.246520000000E+005    0.915422390712E-002
    0.247020000000E+005    0.920436904712E-002
    0.247520000000E+005    0.925463047709E-002
    0.248020000000E+005    0.930500776989E-002
    0.248520000000E+005    0.935550049610E-002
    0.249020000000E+005    0.940610822392E-002
    0.249520000000E+005    0.945683051924E-002
    0.250020000000E+005    0.950766694563E-002
    0.250520000000E+005    0.955861706433E-002
    0.251020000000E+005    0.960968043426E-002
    0.251520000000E+005    0.966085661199E-002
    0.252020000000E+005    0.971214515180E-002
    0.252520000000E+005    0.976354560562E-002
    0.253020000000E+005    0.981505752307E-002
    0.253520000000E+005    0.986668045145E-002
    0.254020000000E+005    0.991841393574E-002
    0.254520000000E+005    0.997025751862E-002
    0.255020000000E+005    0.100222107405E-001
    0.255520000000E+005    0.100742731393E-001
    0.256020000000E+005    0.101264442508E-001
    0.256520000000E+005    0.101787236086E-001
    0.257020000000E+005    0.102311107436E-001
    0.257520000000E+005    0.102836051847E-001
    0.258020000000E+005    0.103362064584E-001
    0.258520000000E+005    0.103889140888E-001
    0.259020000000E+005    0.104417275980E-001
    0.259520000000E+005    0.104946465056E-001
    0.260020000000E+005    0.105476703287E-001
    0.260520000000E+005    0.106007985825E-001
    0.261020000000E+005    0.106540307797E-001
    0.261520000000E+005    0.107073664307E-001
    0.262020000000E+005    0.107608050436E-001
    0.262520000000E+005    0.108143461243E-001
    0.263020000000E+005    0.108679891764E-001
    0.263520000000E+005    0.109217337011E-001
    0.264020000000E+005    0.109755791975E-001
    0.264520000000E+005    0.110295251623E-001
    0.265020000000E+005    0.110835710899E-001
    0.265520000000E+005    0.111377164725E-001
    0.266020000000E+005    0.111919608001E-001
    0.266520000000E+005    0.112463035602E-001
    0.267020000000E+005    0.113007442383E-001
    0.267520000000E+005    0.113552823174E-001
    0.268020000000E+005    0.114099172784E-001
    0.268520000000E+005    0.114646486000E-001
    0.269020000000E+005    0.115194757584E-001
    0.269520000000E+005    0.115743982278E-001
    0.270020000000E+005    0.116294154800E-001
    0.270520000000E+005    0.116845269846E-001
    0.271020000000E+005    0.117397322091E-001
    0.271520000000E+005    0.117950306185E-001
    0.272020000000E+005    0.118504216758E-001
    0.272520000000E+005    0.119059048416E-001
    0.273020000000E+005    0.119614795745E-001
    0.273520000000E+005    0.120171453306E-001
    0.274020000000E+005    0.120729015642E-001
    0.274520000000E+005    0.121287477269E-001
    0.275020000000E+005    0.121846832684E-001
    0.275520000000E+005    0.122407076362E-001
    0.276020000000E+005    0.122968202756E-001
    0.276520000000E+005    0.123530206295E-001
    0.277020000000E+005    0.124093081390E-001
    0.277520000000E+005    0.124656822428E-001
    0.278020000000E+005    0.125221423774E-001
    0.278520000000E+005    0.125786879773E-001
    0.279020000000E+005    0.126353184746E-001
    0.279520000000E+005    0.126920332996E-001
    0.280020000000E+005    0.127488318803E-001
    0.280520000000E+005    0.128057136424E-001
    0.281020000000E+005    0.128626780098E-001
    0.281520000000E+005    0.129197244041E-001
    0.282020000000E+005    0.129768522448E-001
    0.282520000000E+005    0.130340609494E-001
    0.283020000000E+005    0.130913499332E-001
    0.283520000000E+005    0.131487186096E-001
    0.284020000000E+005    0.132061663897E-001
    0.284520000000E+005    0.132636926826E-001
    0.285020000000E+005    0.133212968957E-001
    0.285520000000E+005    0.133789784338E-001
    0.286020000000E+005    0.134367367002E-001
    0.286520000000E+005    0.134945710959E-001
    0.287020000000E+005    0.135524810198E-001
    0.287520000000E+005    0.136104658692E-001
    0.288020000000E+005    0.136685250391E-001
    0.288520000000E+005    0.137266579226E-001
    0.289020000000E+005    0.137848639109E-001
    0.289520000000E+005    0.138431423933E-001
    0.290020000000E+005    0.139014927571E-001
    0.290520000000E+005    0.139599143876E-001
    0.291020000000E+005    0.140184066685E-001
    0.291520000000E+005    0.140769689813E-001
    0.292020000000E+005    0.141356007059E-001
    0.292520000000E+005    0.141943012200E-001
    0.293020000000E+005    0.142530698999E-001
    0.293520000000E+005    0.143119061197E-001
    0.294020000000E+005    0.143708092520E-001
    0.294520000000E+005    0.144297786673E-001
    0.295020000000E+005    0.144888137346E-001
    0.295520000000E+005    0.145479138210E-001
    0.296020000000E+005    0.146070782919E-001
    0.296520000000E+005    0.146663065111E-001
    0.297020000000E+005    0.147255978403E-001
    0.297520000000E+005    0.147849516401E-001
    0.298020000000E+005    0.148443672690E-001
    0.298520000000E+005    0.149038440840E-001
    0.299020000000E+005    0.149633814405E-001
    0.299520000000E+005    0.150229786922E-001
    0.300020000000E+005    0.150826351913E-001
    0.300520000000E+005    0.151423502885E-001
    0.301020000000E+005    0.152021233328E-001
    0.301520000000E+005    0.152619536718E-001
    0.302020000000E+005    0.153218406515E-001
    0.302520000000E+005    0.153817836165E-001
    0.303020000000E+005    0.154417819099E-001
    0.303520000000E+005    0.155018348735E-001
    0.304020000000E+005    0.155619418475E-001
    0.304520000000E+005    0.156221021708E-001
    0.305020000000E+005    0.156823151809E-001
    0.305520000000E+005    0.157425802141E-001
    0.306020000000E+005    0.158028966053E-001
    0.306520000000E+005    0.158632636880E-001
    0.307020000000E+005    0.159236807947E-001
    0.307520000000E+005    0.159841472563E-001
    0.308020000000E+005    0.160446624029E-001
    0.308520000000E+005    0.161052255631E-001
    0.309020000000E+005    0.161658360646E-001
    0.309520000000E+005    0.162264932336E-001
    0.310020000000E+005    0.162871963956E-001
    0.310520000000E+005    0.163479448748E-001
    0.311020000000E+005    0.164087379944E-001
    0.311520000000E+005    0.164695750766E-001
    0.312020000000E+005    0.165304554425E-001
    0.312520000000E+005    0.165913784125E-001
    0.313020000000E+005    0.166523433059E-001
    0.313520000000E+005    0.167133494409E-001
    0.314020000000E+005    0.167743961351E-001
    0.314520000000E+005    0.168354827053E-001
    0.315020000000E+005    0.168966084673E-001
    0.315520000000E+005    0.169577727361E-001
    0.316020000000E+005    0.170189748261E-001
    0.316520000000E+005    0.170802140509E-001
    0.317020000000E+005    0.171414897234E-001
    0.317520000000E+005    0.172028011559E-001