TITLE = "B vs R and Z (Ulrickson)"
VARIABLES = "r","z","B_r","B_z"
ZONE , T ="10", I = 11, J = 21 DATAPACKING = POINT 
830	 	-100	 	0.385442853118	 	1.12262994962
835	 	-100	 	0.37215026181	 	1.11803806296
840	 	-100	 	0.358399006772	 	1.10598616648
845	 	-100	 	0.344776004746	 	1.08899178565
850	 	-100	 	0.331819055112	 	1.07406099863
855	 	-100	 	0.319985205633	 	1.06621979287
860	 	-100	 	0.309713088119	 	1.06574991506
865	 	-100	 	0.301404880803	 	1.06982146527
870	 	-100	 	0.294851823015	 	1.07320693313
875	 	-100	 	0.289251670574	 	1.07324688745
880	 	-100	 	0.283794548821	 	1.07000539323
830	 	-90	 	0.370275980083	 	1.14095079213
835	 	-90	 	0.360065489891	 	1.13788413733
840	 	-90	 	0.349008302367	 	1.12754988709
845	 	-90	 	0.336403536054	 	1.11205892078
850	 	-90	 	0.322317875911	 	1.09725137875
855	 	-90	 	0.308266616146	 	1.08732163606
860	 	-90	 	0.295895458054	 	1.08255213087
865	 	-90	 	0.286746561391	 	1.08133952312
870	 	-90	 	0.280829005998	 	1.08073760498
875	 	-90	 	0.276662594082	 	1.07923935254
880	 	-90	 	0.272736394388	 	1.07680394498
830	 	-80	 	0.352022603623	 	1.15430621371
835	 	-80	 	0.344061008697	 	1.15195923537
840	 	-80	 	0.335217162294	 	1.14501877623
845	 	-80	 	0.32397116362	 	1.13442795006
850	 	-80	 	0.310027402723	 	1.12275048372
855	 	-80	 	0.295391984775	 	1.11183406327
860	 	-80	 	0.282286486348	 	1.10187126669
865	 	-80	 	0.272799078744	 	1.09328703454
870	 	-80	 	0.267093868766	 	1.08689890044
875	 	-80	 	0.263465871996	 	1.08310564895
880	 	-80	 	0.260168212718	 	1.08172836653
830	 	-70	 	0.332427806923	 	1.16567568228
835	 	-70	 	0.325277863736	 	1.16326460362
840	 	-70	 	0.317571161524	 	1.15977681329
845	 	-70	 	0.307641351228	 	1.15480240957
850	 	-70	 	0.295022831544	 	1.14712311117
855	 	-70	 	0.281503582708	 	1.13587582098
860	 	-70	 	0.269086176731	 	1.1211310701
865	 	-70	 	0.259657053894	 	1.10537354031
870	 	-70	 	0.253462440176	 	1.09324005353
875	 	-70	 	0.249155210517	 	1.08706481228
880	 	-70	 	0.245350217124	 	1.08654137946
830	 	-60	 	0.312309249852	 	1.17720145696
835	 	-60	 	0.305101578019	 	1.17388810739
840	 	-60	 	0.297905914527	 	1.17275704868
845	 	-60	 	0.289290491513	 	1.17227497696
850	 	-60	 	0.278697579419	 	1.16809490389
855	 	-60	 	0.26720503466	 	1.15710960672
860	 	-60	 	0.256050982844	 	1.13927175878
865	 	-60	 	0.246410232692	 	1.11849348318
870	 	-60	 	0.238637308107	 	1.10205417037
875	 	-60	 	0.232289884878	 	1.09362937897
880	 	-60	 	0.226901593216	 	1.09284840899
830	 	-50	 	0.291171201789	 	1.18993422867
835	 	-50	 	0.283445581748	 	1.18476330823
840	 	-50	 	0.276298250621	 	1.18432289024
845	 	-50	 	0.268728026046	 	1.1863953698
850	 	-50	 	0.260171679135	 	1.18474701868
855	 	-50	 	0.250879268547	 	1.17491464498
860	 	-50	 	0.24118643099	 	1.15674840348
865	 	-50	 	0.231425949715	 	1.13448195
870	 	-50	 	0.222035168603	 	1.11597844895
875	 	-50	 	0.213553004714	 	1.10521579747
880	 	-50	 	0.206510950284	 	1.10187574412
830	 	-40	 	0.267654773088	 	1.20428294069
835	 	-40	 	0.259151613238	 	1.19683796838
840	 	-40	 	0.251501816574	 	1.19561866476
845	 	-40	 	0.244269375696	 	1.19817936337
850	 	-40	 	0.237073589362	 	1.19767939189
855	 	-40	 	0.22962963828	 	1.18921626547
860	 	-40	 	0.221669261826	 	1.17257019623
865	 	-40	 	0.212955324651	 	1.15144084495
870	 	-40	 	0.203826070854	 	1.13268535974
875	 	-40	 	0.195178684573	 	1.11978014568
880	 	-40	 	0.187914457293	 	1.11253469511
830	 	-30	 	0.241891269078	 	1.22008233697
835	 	-30	 	0.232938969867	 	1.21085177707
840	 	-30	 	0.224850756441	 	1.20809425831
845	 	-30	 	0.21766517595	 	1.20946986675
850	 	-30	 	0.211244253278	 	1.208451211
855	 	-30	 	0.205114164366	 	1.20035788659
860	 	-30	 	0.198773373103	 	1.18495069396
865	 	-30	 	0.191758167983	 	1.16524931076
870	 	-30	 	0.184215283636	 	1.1468405336
875	 	-30	 	0.176884459512	 	1.13256198999
880	 	-30	 	0.170514404123	 	1.12232669299
830	 	-20	 	0.214833161065	 	1.2358997329
835	 	-20	 	0.206393121432	 	1.22532926879
840	 	-20	 	0.198771847232	 	1.22080191752
845	 	-20	 	0.192139060642	 	1.22023148201
850	 	-20	 	0.186435004327	 	1.21780754047
855	 	-20	 	0.18116595232	 	1.20936249802
860	 	-20	 	0.175799930644	 	1.19466739444
865	 	-20	 	0.16984151633	 	1.17612940935
870	 	-20	 	0.163361243535	 	1.1581955051
875	 	-20	 	0.156979433343	 	1.14312785113
880	 	-20	 	0.151326146294	 	1.13090920663
830	 	-10	 	0.186434197674	 	1.24994406332
835	 	-10	 	0.179098006334	 	1.23802105135
840	 	-10	 	0.172543040029	 	1.23185794915
845	 	-10	 	0.166864302035	 	1.2295848916
850	 	-10	 	0.161963656537	 	1.22600560396
855	 	-10	 	0.15737666808	 	1.21739136805
860	 	-10	 	0.152607599013	 	1.20351808375
865	 	-10	 	0.147195655566	 	1.18620574655
870	 	-10	 	0.141227613085	 	1.16880813694
875	 	-10	 	0.135322171194	 	1.15303575716
880	 	-10	 	0.130107049649	 	1.13893969503
830	 	0	 	0.156310944381	 	1.2621084738
835	 	0	 	0.150002907104	 	1.24881245549
840	 	0	 	0.144432923114	 	1.24115072721
845	 	0	 	0.139674151741	 	1.23743158986
850	 	0	 	0.135618764802	 	1.23296820872
855	 	0	 	0.13181533097	 	1.2243954171
860	 	0	 	0.127783380924	 	1.21148788082
865	 	0	 	0.12307637057	 	1.19549244234
870	 	0	 	0.117779775782	 	1.1786951425
875	 	0	 	0.112495891833	 	1.16226801043
880	 	0	 	0.107835752664	 	1.14633145722
830	 	10	 	0.124718162153	 	1.27272490056
835	 	10	 	0.119413694029	 	1.25817537092
840	 	10	 	0.114777836035	 	1.24906692346
845	 	10	 	0.110914568913	 	1.24389898706
850	 	10	 	0.107738754261	 	1.23852925159
855	 	10	 	0.104806819529	 	1.22998140896
860	 	10	 	0.101644337959	 	1.21803214755
865	 	10	 	0.0978094353748	 	1.20337407641
870	 	10	 	0.0933639558231	 	1.18726136726
875	 	10	 	0.0888590696202	 	1.17034534021
880	 	10	 	0.0848546357695	 	1.15280937266
830	 	20	 	0.0920613211986	 	1.28143537442
835	 	20	 	0.0879250398581	 	1.26582489218
840	 	20	 	0.0843533941845	 	1.25540697431
845	 	20	 	0.0814712179444	 	1.24887642098
850	 	20	 	0.0792144370452	 	1.24264580881
855	 	20	 	0.0771614058226	 	1.23413532465
860	 	20	 	0.0748592692848	 	1.22312664616
865	 	20	 	0.0718855518111	 	1.20979877547
870	 	20	 	0.0682827591715	 	1.19445025901
875	 	20	 	0.0645450933437	 	1.17724986663
880	 	20	 	0.0611750938248	 	1.15843508557
830	 	30	 	0.058522712627	 	1.28791682176
835	 	30	 	0.0555702024732	 	1.27147847386
840	 	30	 	0.0530761745818	 	1.25995794517
845	 	30	 	0.0512007602004	 	1.25224118736
850	 	30	 	0.0499033858216	 	1.24528260967
855	 	30	 	0.0487641828809	 	1.23688971282
860	 	30	 	0.0473296135719	 	1.22685075142
865	 	30	 	0.0451762477881	 	1.2148722755
870	 	30	 	0.0423390851956	 	1.20037411585
875	 	30	 	0.0392984572393	 	1.18308115258
880	 	30	 	0.0365430655637	 	1.16327755992
830	 	40	 	0.0243782215345	 	1.29241728587
835	 	40	 	0.0225359741898	 	1.27538145465
840	 	40	 	0.0210477344268	 	1.26287477597
845	 	40	 	0.0201236405866	 	1.25400330547
850	 	40	 	0.0197541611316	 	1.24634290529
855	 	40	 	0.0195153974872	 	1.23814564108
860	 	40	 	0.0189459523817	 	1.22921018576
865	 	40	 	0.0176149576416	 	1.21874319987
870	 	40	 	0.0155556267424	 	1.20523486649
875	 	40	 	0.013251995333	 	1.1879403956
880	 	40	 	0.0111966206667	 	1.16719205308
830	 	50	 	-0.0098182968089	 	1.29497062738
835	 	50	 	-0.0104131151899	 	1.27759542465
840	 	50	 	-0.0108308142262	 	1.26427475982
845	 	50	 	-0.0108885770507	 	1.25434547128
850	 	50	 	-0.0105698732599	 	1.24603275424
855	 	50	 	-0.0101713181222	 	1.23805349742
860	 	50	 	-0.0100183539698	 	1.23021988279
865	 	50	 	-0.0104152893867	 	1.22125406459
870	 	50	 	-0.0113482276444	 	1.20874524791
875	 	50	 	-0.0124941582825	 	1.19149342476
880	 	50	 	-0.0135240348899	 	1.16987683422
830	 	60	 	-0.043683269582	 	1.29501026606
835	 	60	 	-0.042795346472	 	1.27765378423
840	 	60	 	-0.0419999572903	 	1.26407929127
845	 	60	 	-0.0412477646567	 	1.25373468612
850	 	60	 	-0.0405087198025	 	1.24515615091
855	 	60	 	-0.0397884777191	 	1.23728340048
860	 	60	 	-0.0390965598823	 	1.22993750744
865	 	60	 	-0.0384429923869	 	1.22164995972
870	 	60	 	-0.0378541447134	 	1.20965593127
875	 	60	 	-0.0373722627743	 	1.19257626452
880	 	60	 	-0.0370393447625	 	1.17080350093
830	 	70	 	-0.077207926457	 	1.29218682597
835	 	70	 	-0.0747668477801	 	1.2752549465
840	 	70	 	-0.0726972782789	 	1.26218010942
845	 	70	 	-0.0710953879378	 	1.25233943036
850	 	70	 	-0.0699244534215	 	1.24406754793
855	 	70	 	-0.0688963902108	 	1.23616023348
860	 	70	 	-0.0677010034144	 	1.22843858039
865	 	70	 	-0.0660500640186	 	1.21965883777
870	 	70	 	-0.0640002695289	 	1.2074752284
875	 	70	 	-0.0619433889266	 	1.19071975046
880	 	70	 	-0.0602768289284	 	1.1697555534
830	 	80	 	-0.110372865331	 	1.28656586818
835	 	80	 	-0.106522921249	 	1.27042775978
840	 	80	 	-0.103267568069	 	1.25847282677
845	 	80	 	-0.100783952995	 	1.24987686755
850	 	80	 	-0.0990240249354	 	1.24240511755
855	 	80	 	-0.0975140937771	 	1.23444615494
860	 	80	 	-0.0957427381827	 	1.22581399988
865	 	80	 	-0.09323353478	 	1.21577105002
870	 	80	 	-0.0900509328047	 	1.2029137702
875	 	80	 	-0.0867848005977	 	1.18654969301
880	 	80	 	-0.0840343785978	 	1.16698527939
830	 	90	 	-0.143073915145	 	1.27862905744
835	 	90	 	-0.138149235152	 	1.26360292004
840	 	90	 	-0.133965098977	 	1.25317011189
845	 	90	 	-0.130690001508	 	1.24624632744
850	 	90	 	-0.128247245794	 	1.23986074769
855	 	90	 	-0.126096169514	 	1.23187563381
860	 	90	 	-0.123655482224	 	1.22209545807
865	 	90	 	-0.120383268979	 	1.21042313073
870	 	90	 	-0.116343155344	 	1.1966469363
875	 	90	 	-0.112187006242	 	1.18067618846
880	 	90	 	-0.10857736466	 	1.16274903269
830	 	100	 	-0.174864719781	 	1.26918971026
835	 	100	 	-0.169073278697	 	1.25552795995
840	 	100	 	-0.164096918956	 	1.24675482658
845	 	100	 	-0.160067797723	 	1.24154426585
850	 	100	 	-0.156883918509	 	1.23623846734
855	 	100	 	-0.153999572853	 	1.22820885853
860	 	100	 	-0.150830787377	 	1.21725423879
865	 	100	 	-0.14683315729	 	1.20392094698
870	 	100	 	-0.14207087238	 	1.18919446628
875	 	100	 	-0.137199328606	 	1.17358863188
880	 	100	 	-0.132884648558	 	1.15727352618