TITLE = "B vs R and Z (Ulrickson)"
VARIABLES = "r","z","B_r","B_z"
ZONE , T ="15", I = 11, J = 21 DATAPACKING = POINT 
830	 	-100	 	0.378504139504	 	1.11391918177
835	 	-100	 	0.363787250061	 	1.11174528314
840	 	-100	 	0.346031671742	 	1.08296454139
845	 	-100	 	0.327281491216	 	1.03666941757
850	 	-100	 	0.309461407416	 	0.998174905979
855	 	-100	 	0.29431344793	 	0.985639763572
860	 	-100	 	0.283523405014	 	1.00005953303
865	 	-100	 	0.278638142428	 	1.0307985152
870	 	-100	 	0.278883310978	 	1.05819816141
875	 	-100	 	0.281229668889	 	1.0722636533
880	 	-100	 	0.282618573849	 	1.07330739438
830	 	-90	 	0.357065874272	 	1.12465150319
835	 	-90	 	0.35286031621	 	1.13032377471
840	 	-90	 	0.344128901395	 	1.11022491511
845	 	-90	 	0.328315901411	 	1.07191494071
850	 	-90	 	0.305690614668	 	1.03631875612
855	 	-90	 	0.281854469324	 	1.01846335041
860	 	-90	 	0.262888413202	 	1.019343923
865	 	-90	 	0.254489252537	 	1.03291302522
870	 	-90	 	0.256653567102	 	1.04804670942
875	 	-90	 	0.263840573823	 	1.05906100741
880	 	-90	 	0.270396026154	 	1.06584767873
830	 	-80	 	0.329958849726	 	1.11839086641
835	 	-80	 	0.33298557985	 	1.12922168667
840	 	-80	 	0.331380666818	 	1.1239441303
845	 	-80	 	0.319641949446	 	1.10585581924
850	 	-80	 	0.296740455803	 	1.0839192952
855	 	-80	 	0.270058112496	 	1.06459411939
860	 	-80	 	0.247763164253	 	1.0485534117
865	 	-80	 	0.237530893006	 	1.03726194174
870	 	-80	 	0.239905996876	 	1.03353770474
875	 	-80	 	0.248506321142	 	1.03875531127
880	 	-80	 	0.256795841953	 	1.05226150181
830	 	-70	 	0.30326291505	 	1.10666300651
835	 	-70	 	0.308217764793	 	1.1195599068
840	 	-70	 	0.309740956485	 	1.12914280058
845	 	-70	 	0.301830748983	 	1.13376197668
850	 	-70	 	0.282856538704	 	1.12854878223
855	 	-70	 	0.25939295723	 	1.11004947012
860	 	-70	 	0.238794629018	 	1.07849616424
865	 	-70	 	0.227986971289	 	1.04298956621
870	 	-70	 	0.227809816177	 	1.0205092185
875	 	-70	 	0.233191284586	 	1.01960472481
880	 	-70	 	0.238920026754	 	1.03911409508
830	 	-60	 	0.280398968089	 	1.09673396994
835	 	-60	 	0.284297871804	 	1.10892424007
840	 	-60	 	0.286499734603	 	1.12945567961
845	 	-60	 	0.282139127783	 	1.15261166669
850	 	-60	 	0.269418644133	 	1.16219224687
855	 	-60	 	0.252285591569	 	1.14661675552
860	 	-60	 	0.235246871285	 	1.10569817511
865	 	-60	 	0.222576998276	 	1.05383729637
870	 	-60	 	0.215521017231	 	1.01782817865
875	 	-60	 	0.212381058824	 	1.01120083477
880	 	-60	 	0.211371846172	 	1.03251903201
830	 	-50	 	0.260161471394	 	1.09089386593
835	 	-50	 	0.261210191914	 	1.10056916775
840	 	-50	 	0.262180795779	 	1.126716991
845	 	-50	 	0.260120171353	 	1.16134524189
850	 	-50	 	0.253420423992	 	1.18196850502
855	 	-50	 	0.242974442723	 	1.17249049516
860	 	-50	 	0.2299357091	 	1.1323916928
865	 	-50	 	0.215450627759	 	1.07723008485
870	 	-50	 	0.201087302383	 	1.0359015795
875	 	-50	 	0.188823487155	 	1.02302429135
880	 	-50	 	0.180611246503	 	1.03732736882
830	 	-40	 	0.238109299696	 	1.09214940143
835	 	-40	 	0.234579195987	 	1.09862999529
840	 	-40	 	0.232074335035	 	1.12542940689
845	 	-40	 	0.229620188294	 	1.16403062068
850	 	-40	 	0.226230389546	 	1.19056494397
855	 	-40	 	0.220874516187	 	1.18793289719
860	 	-40	 	0.212538441043	 	1.15541528096
865	 	-40	 	0.200323676044	 	1.10655118482
870	 	-40	 	0.185460596538	 	1.06643563095
875	 	-40	 	0.171247616622	 	1.0477906774
880	 	-40	 	0.160998806071	 	1.04979585273
830	 	-30	 	0.214150935379	 	1.10329853297
835	 	-30	 	0.206583089842	 	1.10700815534
840	 	-30	 	0.200553314754	 	1.13110882324
845	 	-30	 	0.196474031574	 	1.16760940832
850	 	-30	 	0.194040922787	 	1.19415991153
855	 	-30	 	0.191591652603	 	1.19474259298
860	 	-30	 	0.187346610587	 	1.16859571969
865	 	-30	 	0.179661592262	 	1.12678462892
870	 	-30	 	0.169085685916	 	1.08978276395
875	 	-30	 	0.158298607105	 	1.06798833626
880	 	-30	 	0.150011820959	 	1.06094106674
830	 	-20	 	0.190591519101	 	1.11946641217
835	 	-20	 	0.182392668646	 	1.12085871857
840	 	-20	 	0.175806746	 	1.14084922436
845	 	-20	 	0.171615897271	 	1.17238565032
850	 	-20	 	0.169733976287	 	1.19576422327
855	 	-20	 	0.168435894116	 	1.19686084869
860	 	-20	 	0.165849240725	 	1.17495850345
865	 	-20	 	0.160231357962	 	1.13895242958
870	 	-20	 	0.151856781029	 	1.10527700127
875	 	-20	 	0.14295960439	 	1.08229157866
880	 	-20	 	0.135808133059	 	1.06977103506
830	 	-10	 	0.166496946852	 	1.133100842
835	 	-10	 	0.159766300241	 	1.13218969837
840	 	-10	 	0.1545319952	 	1.1484479783
845	 	-10	 	0.151403630579	 	1.17566570842
850	 	-10	 	0.150210743257	 	1.19651930853
855	 	-10	 	0.149308415098	 	1.1985871142
860	 	-10	 	0.146921105852	 	1.18118307976
865	 	-10	 	0.14139911581	 	1.15109664632
870	 	-10	 	0.133069576345	 	1.12084131751
875	 	-10	 	0.124179969019	 	1.09679803318
880	 	-10	 	0.117010038613	 	1.07897518344
830	 	0	 	0.13996470629	 	1.14409748603
835	 	0	 	0.13419390712	 	1.14094396389
840	 	0	 	0.1298314102	 	1.15387015975
845	 	0	 	0.127476532257	 	1.17742173127
850	 	0	 	0.126962273012	 	1.19641686546
855	 	0	 	0.1266731677	 	1.1999648972
860	 	0	 	0.124865422523	 	1.1873967819
865	 	0	 	0.119918528974	 	1.16341860209
870	 	0	 	0.11214649112	 	1.1366626617
875	 	0	 	0.103742553815	 	1.11155260138
880	 	0	 	0.0969316676015	 	1.08833713286
830	 	10	 	0.111522950513	 	1.15437800374
835	 	10	 	0.106392835144	 	1.14922519933
840	 	10	 	0.102591294311	 	1.15876760375
845	 	10	 	0.100814002374	 	1.1783650043
850	 	10	 	0.100965690241	 	1.19513604117
855	 	10	 	0.101457775458	 	1.19983546201
860	 	10	 	0.100567790138	 	1.19182501191
865	 	10	 	0.0966913711529	 	1.17379448701
870	 	10	 	0.0900511051079	 	1.15062245078
875	 	10	 	0.0826443297754	 	1.12483821554
880	 	10	 	0.0764999335026	 	1.09690879717
830	 	20	 	0.0821815824133	 	1.16314218469
835	 	20	 	0.0781140576634	 	1.15624303384
840	 	20	 	0.0752462776019	 	1.16256107722
845	 	20	 	0.0742698160566	 	1.17826398101
850	 	20	 	0.0751167539153	 	1.19274965132
855	 	20	 	0.0762857570207	 	1.19840358067
860	 	20	 	0.0761464917489	 	1.19462553066
865	 	20	 	0.0731779427285	 	1.1822482855
870	 	20	 	0.0675319146622	 	1.16269541456
875	 	20	 	0.0609852374682	 	1.13675150415
880	 	20	 	0.0553447604023	 	1.10507051942
830	 	30	 	0.0518472780992	 	1.16963213331
835	 	30	 	0.0487269550853	 	1.16121044536
840	 	30	 	0.0467073734175	 	1.16464199323
845	 	30	 	0.0465105395856	 	1.17684460752
850	 	30	 	0.0480927722955	 	1.18933291721
855	 	30	 	0.0499658298594	 	1.19600682558
860	 	30	 	0.0505109583248	 	1.19630269049
865	 	30	 	0.0482168998397	 	1.18936261914
870	 	30	 	0.043209446265	 	1.17346575578
875	 	30	 	0.0372046663263	 	1.1478082192
880	 	30	 	0.0319485011046	 	1.11320516907
830	 	40	 	0.0207154023682	 	1.1750795825
835	 	40	 	0.0181349646599	 	1.16534254797
840	 	40	 	0.0165697687176	 	1.16586012852
845	 	40	 	0.0168414805207	 	1.17437128804
850	 	40	 	0.018965329612	 	1.18470405466
855	 	40	 	0.0214364575393	 	1.19241394861
860	 	40	 	0.0226114102405	 	1.19698173105
865	 	40	 	0.0209555121063	 	1.19576783674
870	 	40	 	0.0165879403512	 	1.1837380245
875	 	40	 	0.0112344720761	 	1.1584144465
880	 	40	 	0.00665123522068	 	1.12078067082
830	 	50	 	-0.00989844754963	 	1.17978661533
835	 	50	 	-0.0114709165612	 	1.16905518367
840	 	50	 	-0.0123744375765	 	1.16681257526
845	 	50	 	-0.0119607780825	 	1.17163295202
850	 	50	 	-0.0101717972372	 	1.17969263449
855	 	50	 	-0.0080606085535	 	1.18822838666
860	 	50	 	-0.00678261291325	 	1.19677165148
865	 	50	 	-0.00741825447173	 	1.20095638724
870	 	50	 	-0.00991994456748	 	1.19253783602
875	 	50	 	-0.0131442912313	 	1.16741603889
880	 	50	 	-0.0159264687309	 	1.12673807412
830	 	60	 	-0.0393615232757	 	1.18160818619
835	 	60	 	-0.0390219975623	 	1.17056126917
840	 	60	 	-0.0386923724806	 	1.16711880031
845	 	60	 	-0.038287902858	 	1.17023282671
850	 	60	 	-0.037758317266	 	1.17713926133
855	 	60	 	-0.0371172318114	 	1.18583387715
860	 	60	 	-0.0363851092192	 	1.19587700967
865	 	60	 	-0.0355852935986	 	1.2022355932
870	 	60	 	-0.0348173027587	 	1.19542644912
875	 	60	 	-0.0342546518168	 	1.17072288241
880	 	60	 	-0.0340702096967	 	1.12932334407
830	 	70	 	-0.0684466298797	 	1.17918419772
835	 	70	 	-0.0658863869508	 	1.16865165927
840	 	70	 	-0.0640388252476	 	1.16626474181
845	 	70	 	-0.0634365672263	 	1.17066958348
850	 	70	 	-0.0640701283854	 	1.17823841163
855	 	70	 	-0.0649077480001	 	1.18634914515
860	 	70	 	-0.0648248642922	 	1.19455315326
865	 	70	 	-0.0627765916791	 	1.19864392359
870	 	70	 	-0.0589694896448	 	1.19067931045
875	 	70	 	-0.0548258071656	 	1.16670913862
880	 	70	 	-0.0517882292343	 	1.12782817639
830	 	80	 	-0.0979447384153	 	1.17269321548
835	 	80	 	-0.0936206535289	 	1.16333231206
840	 	80	 	-0.0905165661498	 	1.16375871984
845	 	80	 	-0.0895480691308	 	1.17181151528
850	 	80	 	-0.0907290387689	 	1.181591556
855	 	80	 	-0.0923735961426	 	1.18885089274
860	 	80	 	-0.0926409502811	 	1.19309939865
865	 	80	 	-0.0898161121313	 	1.1919559925
870	 	80	 	-0.0841270410081	 	1.1808766318
875	 	80	 	-0.0776891317844	 	1.15762616409
880	 	80	 	-0.0726515235849	 	1.1231018627
830	 	90	 	-0.128287985598	 	1.16370185441
835	 	90	 	-0.123308533321	 	1.15605233635
840	 	90	 	-0.119827334182	 	1.16030015304
845	 	90	 	-0.118789150788	 	1.17323944712
850	 	90	 	-0.120146906814	 	1.18602972054
855	 	90	 	-0.121982514224	 	1.19231764641
860	 	90	 	-0.122208648402	 	1.19155667021
865	 	90	 	-0.118878999334	 	1.18365966563
870	 	90	 	-0.112213052907	 	1.16835069739
875	 	90	 	-0.104534211021	 	1.1455498588
880	 	90	 	-0.0982042427372	 	1.11592010314
830	 	100	 	-0.15848011174	 	1.15482831413
835	 	100	 	-0.153415970929	 	1.14938245018
840	 	100	 	-0.14997849951	 	1.15760207006
845	 	100	 	-0.14896117883	 	1.17529059239
850	 	100	 	-0.150216066341	 	1.19081089069
855	 	100	 	-0.151817035364	 	1.19580894381
860	 	100	 	-0.151679243363	 	1.18969308415
865	 	100	 	-0.147858904567	 	1.17467487898
870	 	100	 	-0.14058024754	 	1.15475502311
875	 	100	 	-0.132173571913	 	1.13201331284
880	 	100	 	-0.125007485564	 	1.10688309777