TITLE = "B vs R and Z (Ulrickson)"
VARIABLES = "r","z","B_r","B_z"
ZONE , T ="46", I = 11, J = 21 DATAPACKING = POINT 
830	 	-100	 	0.328571984599	 	1.01988873422
835	 	-100	 	0.316812649373	 	1.01427517767
840	 	-100	 	0.303450005379	 	0.989201425446
845	 	-100	 	0.289961944999	 	0.952671964001
850	 	-100	 	0.277812907493	 	0.927106813742
855	 	-100	 	0.268474242273	 	0.928569343438
860	 	-100	 	0.263387783539	 	0.957772016265
865	 	-100	 	0.263861094553	 	1.00274237905
870	 	-100	 	0.268863545647	 	1.04130995378
875	 	-100	 	0.27509311973	 	1.06222442269
880	 	-100	 	0.279223632286	 	1.06597235318
830	 	-90	 	0.310870021033	 	1.02905888186
835	 	-90	 	0.307347081264	 	1.02857708016
840	 	-90	 	0.300293570491	 	1.00976330526
845	 	-90	 	0.287510299585	 	0.979143950625
850	 	-90	 	0.269359726353	 	0.954915555893
855	 	-90	 	0.251041925331	 	0.950127091832
860	 	-90	 	0.238189587378	 	0.965495545365
865	 	-90	 	0.236059318537	 	0.993695414732
870	 	-90	 	0.244164849226	 	1.02121172141
875	 	-90	 	0.256441116402	 	1.04115994902
880	 	-90	 	0.266719240783	 	1.05352966045
830	 	-80	 	0.285610670681	 	1.02399139706
835	 	-80	 	0.286897243026	 	1.0281087543
840	 	-80	 	0.284215477579	 	1.02179335332
845	 	-80	 	0.273347570831	 	1.00779819314
850	 	-80	 	0.253898194343	 	0.993707653722
855	 	-80	 	0.232670051796	 	0.984973372104
860	 	-80	 	0.217128787925	 	0.982073261901
865	 	-80	 	0.21426133139	 	0.985215503491
870	 	-80	 	0.223894152972	 	0.994885433508
875	 	-80	 	0.238897850093	 	1.01127696426
880	 	-80	 	0.252004169647	 	1.03373146826
830	 	-70	 	0.257494800022	 	1.01779262505
835	 	-70	 	0.258745426133	 	1.02454320112
840	 	-70	 	0.257144665886	 	1.03019306853
845	 	-70	 	0.24851188543	 	1.03341030796
850	 	-70	 	0.232165229122	 	1.03031744546
855	 	-70	 	0.214004273429	 	1.01815681715
860	 	-70	 	0.200541341717	 	0.997116109628
865	 	-70	 	0.197876873354	 	0.975066153529
870	 	-70	 	0.205995477553	 	0.966729957776
875	 	-70	 	0.218940671378	 	0.979501077701
880	 	-70	 	0.230634490606	 	1.01207166578
830	 	-60	 	0.233753863403	 	1.0156857144
835	 	-60	 	0.234205214015	 	1.02264567568
840	 	-60	 	0.233339131964	 	1.03622165721
845	 	-60	 	0.227877724418	 	1.05196641703
850	 	-60	 	0.216877134158	 	1.05728151115
855	 	-60	 	0.203773201923	 	1.04316025135
860	 	-60	 	0.192419617011	 	1.00953874639
865	 	-60	 	0.186452604297	 	0.969607384199
870	 	-60	 	0.186489443788	 	0.947966831198
875	 	-60	 	0.190214726188	 	0.957008881376
880	 	-60	 	0.195239491345	 	0.995014590334
830	 	-50	 	0.214729271511	 	1.01444807365
835	 	-50	 	0.214402992636	 	1.01977873591
840	 	-50	 	0.214005990587	 	1.03734706036
845	 	-50	 	0.211432111315	 	1.06100630043
850	 	-50	 	0.205571309639	 	1.07344824426
855	 	-50	 	0.197167101165	 	1.06228475494
860	 	-50	 	0.187154468609	 	1.02721979551
865	 	-50	 	0.176467719913	 	0.982546048404
870	 	-50	 	0.166498612725	 	0.954876204449
875	 	-50	 	0.159083284408	 	0.957638366186
880	 	-50	 	0.156036728264	 	0.989232266492
830	 	-40	 	0.195140615978	 	1.01598049297
835	 	-40	 	0.191995002909	 	1.01895768349
840	 	-40	 	0.189575629579	 	1.03709395432
845	 	-40	 	0.18723125409	 	1.06387036708
850	 	-40	 	0.184241313292	 	1.08100448189
855	 	-40	 	0.179738668291	 	1.07540064945
860	 	-40	 	0.172857678201	 	1.04659291795
865	 	-40	 	0.162841404702	 	1.00683062104
870	 	-40	 	0.150978405433	 	0.978878794112
875	 	-40	 	0.140544291253	 	0.974246532115
880	 	-40	 	0.134827403344	 	0.991808366509
830	 	-30	 	0.174629807006	 	1.02509666187
835	 	-30	 	0.168459544135	 	1.02630132852
840	 	-30	 	0.163365185664	 	1.0423599597
845	 	-30	 	0.15987803709	 	1.06725106385
850	 	-30	 	0.157884209557	 	1.08411612265
855	 	-30	 	0.156050880125	 	1.08087542873
860	 	-30	 	0.152936683918	 	1.05703083346
865	 	-30	 	0.147217124243	 	1.02256082419
870	 	-30	 	0.139508571769	 	0.995983239438
875	 	-30	 	0.13231281117	 	0.986674018263
880	 	-30	 	0.128156886199	 	0.993876502107
830	 	-20	 	0.155577415361	 	1.03749991885
835	 	-20	 	0.149658148567	 	1.03743908195
840	 	-20	 	0.144828305566	 	1.05034818769
845	 	-20	 	0.141825520571	 	1.07103055131
850	 	-20	 	0.140662266531	 	1.08494198503
855	 	-20	 	0.139984100666	 	1.08166036864
860	 	-20	 	0.138311975383	 	1.06073405757
865	 	-20	 	0.134275701759	 	1.03030597533
870	 	-20	 	0.128243924369	 	1.0054744325
875	 	-20	 	0.122274440331	 	0.993890869449
880	 	-20	 	0.118451667055	 	0.995023643818
830	 	-10	 	0.13641695514	 	1.04567668659
835	 	-10	 	0.132489292237	 	1.0442018748
840	 	-10	 	0.129533949286	 	1.05455517201
845	 	-10	 	0.127993550371	 	1.07220455527
850	 	-10	 	0.127709091315	 	1.08448355516
855	 	-10	 	0.12738377739	 	1.0823131544
860	 	-10	 	0.12562058219	 	1.06525856381
865	 	-10	 	0.121130389327	 	1.03961535512
870	 	-10	 	0.114382726073	 	1.01703691009
875	 	-10	 	0.107555516396	 	1.0034391547
880	 	-10	 	0.102851506036	 	0.998528905965
830	 	0	 	0.114553579364	 	1.0509450859
835	 	0	 	0.111348908479	 	1.04802005289
840	 	0	 	0.109055883319	 	1.0562386852
845	 	0	 	0.108111940352	 	1.07163597091
850	 	0	 	0.108358755857	 	1.08315709184
855	 	0	 	0.108511293987	 	1.08287446674
860	 	0	 	0.107185281016	 	1.07035113408
865	 	0	 	0.103102297503	 	1.05000708284
870	 	0	 	0.0967020545101	 	1.02999560473
875	 	0	 	0.0900933041563	 	1.01447063258
880	 	0	 	0.0854094615636	 	1.0033906985
830	 	10	 	0.0908826576417	 	1.05664675646
835	 	10	 	0.0878843510763	 	1.05251930926
840	 	10	 	0.0857598919405	 	1.05841647911
845	 	10	 	0.0850470819677	 	1.07102585589
850	 	10	 	0.0856689030583	 	1.08113633924
855	 	10	 	0.0863874825417	 	1.08213912119
860	 	10	 	0.0858609303497	 	1.07361593362
865	 	10	 	0.0828447014127	 	1.05822472911
870	 	10	 	0.0776394233221	 	1.04083425768
875	 	10	 	0.07204674854	 	1.02394306613
880	 	10	 	0.0678925710888	 	1.00772607931
830	 	20	 	0.0667893615396	 	1.06138030011
835	 	20	 	0.0647379698229	 	1.05615010466
840	 	20	 	0.0634811985308	 	1.05985451588
845	 	20	 	0.0634479359488	 	1.06978920554
850	 	20	 	0.0645400383846	 	1.07845941347
855	 	20	 	0.065663553776	 	1.08048421527
860	 	20	 	0.0656359617327	 	1.07546888025
865	 	20	 	0.0633579781126	 	1.0645599194
870	 	20	 	0.0590337802263	 	1.04981114898
875	 	20	 	0.0541337650812	 	1.03230111426
880	 	20	 	0.0501498535561	 	1.01237418986
830	 	30	 	0.0415203992556	 	1.06394057931
835	 	30	 	0.0400422701404	 	1.05757550881
840	 	30	 	0.0393085223403	 	1.05947052418
845	 	30	 	0.0397305075031	 	1.06739313195
850	 	30	 	0.0412138042214	 	1.07518614489
855	 	30	 	0.0427083454908	 	1.07842474818
860	 	30	 	0.0430790729595	 	1.07672683458
865	 	30	 	0.0412692649134	 	1.06998782343
870	 	30	 	0.0374377341146	 	1.05793220394
875	 	30	 	0.0329240982449	 	1.04046310651
880	 	30	 	0.0290887337028	 	1.01805651833
830	 	40	 	0.0149171513082	 	1.06692615028
835	 	40	 	0.0130177554786	 	1.05960584745
840	 	40	 	0.0118343147179	 	1.05952836523
845	 	40	 	0.0119980303675	 	1.06502571484
850	 	40	 	0.0135325171875	 	1.07153386863
855	 	40	 	0.0153163904593	 	1.07576779619
860	 	40	 	0.0161236189885	 	1.07737055756
865	 	40	 	0.0148108370282	 	1.07491176695
870	 	40	 	0.0115030949803	 	1.06564868504
875	 	40	 	0.00755761893419	 	1.04823881259
880	 	40	 	0.00435418096387	 	1.02329231613
830	 	50	 	-0.0108870605307	 	1.07130674683
835	 	50	 	-0.012573183593	 	1.06342080515
840	 	50	 	-0.0137796386702	 	1.06121216742
845	 	50	 	-0.013907518647	 	1.06369652782
850	 	50	 	-0.0128529222596	 	1.06822807858
855	 	50	 	-0.0114429230305	 	1.07289568918
860	 	50	 	-0.0105914237784	 	1.07738762484
865	 	50	 	-0.0111527990718	 	1.07890948747
870	 	50	 	-0.0130837146004	 	1.07218153143
875	 	50	 	-0.0154687759998	 	1.05457970853
880	 	50	 	-0.0173756502779	 	1.02684911086
830	 	60	 	-0.0348849359512	 	1.07365893617
835	 	60	 	-0.0348895865711	 	1.0656864133
840	 	60	 	-0.0349133646644	 	1.06251228179
845	 	60	 	-0.0348604079176	 	1.06348746025
850	 	60	 	-0.034674483495	 	1.06690291789
855	 	60	 	-0.0343728351337	 	1.07151900211
860	 	60	 	-0.0339805482108	 	1.0770530506
865	 	60	 	-0.0335250362301	 	1.08017004961
870	 	60	 	-0.0330995852124	 	1.07458663401
875	 	60	 	-0.032861471623	 	1.05717079097
880	 	60	 	-0.0329672560275	 	1.02871030093
830	 	70	 	-0.0584954479396	 	1.07193210352
835	 	70	 	-0.0564140799476	 	1.06431357037
840	 	70	 	-0.0548414039272	 	1.06198416719
845	 	70	 	-0.0542724577072	 	1.06404229031
850	 	70	 	-0.05474840863	 	1.06806744175
855	 	70	 	-0.0554556216905	 	1.07231080144
860	 	70	 	-0.0555018532877	 	1.07648153716
865	 	70	 	-0.0540598910665	 	1.07792305434
870	 	70	 	-0.0513369006407	 	1.07161746553
875	 	70	 	-0.0485448719366	 	1.05507009978
880	 	70	 	-0.0469118941501	 	1.0289782435
830	 	80	 	-0.0830856364385	 	1.06674719213
835	 	80	 	-0.0796549753267	 	1.05973565284
840	 	80	 	-0.0770506467	 	1.05954673419
845	 	80	 	-0.076111951668	 	1.06459839051
850	 	80	 	-0.0769279409898	 	1.07056016444
855	 	80	 	-0.0781751353865	 	1.07431536817
860	 	80	 	-0.0783997249708	 	1.07553502555
865	 	80	 	-0.0762505442674	 	1.07307527442
870	 	80	 	-0.071986061518	 	1.06473596084
875	 	80	 	-0.0674283891464	 	1.04944362136
880	 	80	 	-0.0644260815875	 	1.02771783307
830	 	90	 	-0.109346180981	 	1.06029011721
835	 	90	 	-0.106039923846	 	1.05416139069
840	 	90	 	-0.103731764019	 	1.05675248805
845	 	90	 	-0.103221999733	 	1.0656191107
850	 	90	 	-0.104519189708	 	1.07400895139
855	 	90	 	-0.106139366644	 	1.07707106725
860	 	90	 	-0.106462612252	 	1.07442800236
865	 	90	 	-0.1039825602	 	1.06683429144
870	 	90	 	-0.0989676500378	 	1.05562463728
875	 	90	 	-0.0934104184555	 	1.04150913584
880	 	90	 	-0.0893329173075	 	1.02479368568
830	 	100	 	-0.1360318392	 	1.05581544809
835	 	100	 	-0.133502920836	 	1.05105865059
840	 	100	 	-0.132050668759	 	1.05640209934
845	 	100	 	-0.132258314606	 	1.06863775022
850	 	100	 	-0.133998343362	 	1.07885797316
855	 	100	 	-0.135800415902	 	1.08066983667
860	 	100	 	-0.136074661388	 	1.07366469088
865	 	100	 	-0.133343553373	 	1.06046026632
870	 	100	 	-0.127891980982	 	1.04586056217
875	 	100	 	-0.121716894187	 	1.03232616239
880	 	100	 	-0.116844153734	 	1.01995904496