TITLE = "B vs R and Z (Ulrickson)"
VARIABLES = "r","z","B_r","B_z"
ZONE , T ="08", I = 11, J = 21 DATAPACKING = POINT 
830	 	-100	 	0.386515556993	 	1.12269937381
835	 	-100	 	0.373840040812	 	1.1170356893
840	 	-100	 	0.361743635881	 	1.11150833742
845	 	-100	 	0.350238178401	 	1.10607755928
850	 	-100	 	0.339316533324	 	1.10063333576
855	 	-100	 	0.328935640707	 	1.09509665404
860	 	-100	 	0.319049319396	 	1.08946548428
865	 	-100	 	0.309614211725	 	1.08384828935
870	 	-100	 	0.300628106151	 	1.0784483983
875	 	-100	 	0.292128761659	 	1.07336768942
880	 	-100	 	0.284154804859	 	1.06858158659
830	 	-90	 	0.373976377999	 	1.14393120923
835	 	-90	 	0.361438780383	 	1.13730407948
840	 	-90	 	0.349486725349	 	1.13074889454
845	 	-90	 	0.338158889518	 	1.12425564533
850	 	-90	 	0.327458175744	 	1.11779790864
855	 	-90	 	0.317320104404	 	1.11135652858
860	 	-90	 	0.307674006352	 	1.10493151866
865	 	-90	 	0.298453433552	 	1.09857503195
870	 	-90	 	0.289652627791	 	1.0923858136
875	 	-90	 	0.281324786682	 	1.08641283382
880	 	-90	 	0.273524441845	 	1.08064447403
830	 	-80	 	0.35925205196	 	1.16492297439
835	 	-80	 	0.346976536185	 	1.15735076582
840	 	-80	 	0.335268313616	 	1.14973957546
845	 	-80	 	0.324190343883	 	1.14212347623
850	 	-80	 	0.313757898181	 	1.13459938841
855	 	-80	 	0.303896674339	 	1.12723654625
860	 	-80	 	0.294523907376	 	1.12003866856
865	 	-80	 	0.285561725995	 	1.11298553625
870	 	-80	 	0.277002196108	 	1.10604157457
875	 	-80	 	0.268905322629	 	1.09918775195
880	 	-80	 	0.261332675972	 	1.09242627892
830	 	-70	 	0.34236211645	 	1.18537537086
835	 	-70	 	0.330443863504	 	1.176953947
840	 	-70	 	0.319083508931	 	1.16833119724
845	 	-70	 	0.308338540771	 	1.15959569262
850	 	-70	 	0.298222760975	 	1.1509959887
855	 	-70	 	0.288667911637	 	1.14271010311
860	 	-70	 	0.279597985782	 	1.1347472479
865	 	-70	 	0.270941428477	 	1.1270112163
870	 	-70	 	0.262689950631	 	1.11932543587
875	 	-70	 	0.254896721393	 	1.11159947556
880	 	-70	 	0.247616350248	 	1.10384946031
830	 	-60	 	0.323287914276	 	1.20533760115
835	 	-60	 	0.311733816507	 	1.19598647636
840	 	-60	 	0.300825590466	 	1.18634566849
845	 	-60	 	0.290525768281	 	1.1765395725
850	 	-60	 	0.280795001686	 	1.16691704136
855	 	-60	 	0.271589530019	 	1.15772795924
860	 	-60	 	0.26286600116	 	1.14898454953
865	 	-60	 	0.254583496113	 	1.14053238186
870	 	-60	 	0.246734754936	 	1.13208687207
875	 	-60	 	0.239345215051	 	1.1235028807
880	 	-60	 	0.232441142134	 	1.11480883282
830	 	-50	 	0.301922291627	 	1.22516189683
835	 	-50	 	0.290796144433	 	1.21440418139
840	 	-50	 	0.280449103354	 	1.20357753673
845	 	-50	 	0.270706492284	 	1.19277378625
850	 	-50	 	0.26145061427	 	1.18225534406
855	 	-50	 	0.252668604746	 	1.17220949594
860	 	-50	 	0.24435955839	 	1.16264102471
865	 	-50	 	0.236522413315	 	1.15338237053
870	 	-50	 	0.229152073027	 	1.14412465648
875	 	-50	 	0.222239521705	 	1.1347104052
880	 	-50	 	0.215775773959	 	1.12517636071
830	 	-40	 	0.278119489927	 	1.24447234014
835	 	-40	 	0.267647189477	 	1.23195834518
840	 	-40	 	0.257977509864	 	1.21984041759
845	 	-40	 	0.248880031258	 	1.20812353625
850	 	-40	 	0.240206486676	 	1.19683546235
855	 	-40	 	0.231960229302	 	1.18599416255
860	 	-40	 	0.224161457085	 	1.17558866474
865	 	-40	 	0.216829010358	 	1.16547322968
870	 	-40	 	0.209960929949	 	1.1553795296
875	 	-40	 	0.203535051454	 	1.14517058916
880	 	-40	 	0.197528838772	 	1.134888449
830	 	-30	 	0.251955226743	 	1.26241546265
835	 	-30	 	0.242356695836	 	1.24826781817
840	 	-30	 	0.233474968336	 	1.23496271959
845	 	-30	 	0.225107156707	 	1.22242016403
850	 	-30	 	0.217123384191	 	1.21043800373
855	 	-30	 	0.209528563384	 	1.1988683511
860	 	-30	 	0.202342542013	 	1.18768498307
865	 	-30	 	0.195583941675	 	1.17676466888
870	 	-30	 	0.189253411143	 	1.16588080347
875	 	-30	 	0.183334139876	 	1.15491756162
880	 	-30	 	0.177808945248	 	1.14392230995
830	 	-20	 	0.223659314901	 	1.27863448753
835	 	-20	 	0.215047727518	 	1.26310532672
840	 	-20	 	0.20705127443	 	1.24877444998
845	 	-20	 	0.199506088912	 	1.23549417966
850	 	-20	 	0.192307409204	 	1.22287928759
855	 	-20	 	0.185459598934	 	1.21064981268
860	 	-20	 	0.178979105248	 	1.19876729763
865	 	-20	 	0.172881376823	 	1.18712437057
870	 	-20	 	0.167167370572	 	1.17552375295
875	 	-20	 	0.161823965695	 	1.16386452259
880	 	-20	 	0.156837731942	 	1.1521996113
830	 	-10	 	0.193539372751	 	1.29302987999
835	 	-10	 	0.18599125253	 	1.27632568846
840	 	-10	 	0.178965910414	 	1.26111083232
845	 	-10	 	0.172328759354	 	1.24718175622
850	 	-10	 	0.165994291904	 	1.2340019756
855	 	-10	 	0.159967648918	 	1.22118242668
860	 	-10	 	0.154263977586	 	1.20867467176
865	 	-10	 	0.148897474717	 	1.19638644487
870	 	-10	 	0.143868286534	 	1.18414843788
875	 	-10	 	0.139162910118	 	1.17187392342
880	 	-10	 	0.134767559512	 	1.15962053587
830	 	0	 	0.161915558835	 	1.30547744262
835	 	0	 	0.155502670621	 	1.28779111028
840	 	0	 	0.149521448749	 	1.27183372191
845	 	0	 	0.143861472252	 	1.25735504743
850	 	0	 	0.138453213071	 	1.24369213895
855	 	0	 	0.133302708733	 	1.23036473056
860	 	0	 	0.128424302107	 	1.21731619111
865	 	0	 	0.123831439196	 	1.20446913691
870	 	0	 	0.119524331094	 	1.19168184324
875	 	0	 	0.115490332127	 	1.17888156696
880	 	0	 	0.111716528416	 	1.16612971282
830	 	10	 	0.129062665381	 	1.31586346627
835	 	10	 	0.12383173331	 	1.29738412411
840	 	10	 	0.118943740348	 	1.28082937021
845	 	10	 	0.114309550193	 	1.26591024341
850	 	10	 	0.109873515614	 	1.25185874756
855	 	10	 	0.105641901993	 	1.23811887416
860	 	10	 	0.101627752323	 	1.22462727888
865	 	10	 	0.0978433191898	 	1.21131992871
870	 	10	 	0.09428939492	 	1.19807982706
875	 	10	 	0.0909556390143	 	1.1848467761
880	 	10	 	0.0878314654824	 	1.17168526874
830	 	20	 	0.095237392233	 	1.32415499936
835	 	20	 	0.0912125594326	 	1.30505882375
840	 	20	 	0.087446118869	 	1.28804307286
845	 	20	 	0.083868839872	 	1.27278760037
850	 	20	 	0.0804377655835	 	1.2584397712
855	 	20	 	0.0771585280523	 	1.2443825581
860	 	20	 	0.0740420636698	 	1.23054724949
865	 	20	 	0.0710986576052	 	1.21688091359
870	 	20	 	0.0683292490216	 	1.20328710063
875	 	20	 	0.0657256981042	 	1.18971604458
880	 	20	 	0.0632796584672	 	1.1762346595
830	 	30	 	0.0606918458988	 	1.33032297269
835	 	30	 	0.0579019915372	 	1.31077884436
840	 	30	 	0.0552843043805	 	1.29343250696
845	 	30	 	0.0527901713528	 	1.27794015845
850	 	30	 	0.0503898328009	 	1.26338493158
855	 	30	 	0.0480884187158	 	1.24910349636
860	 	30	 	0.0458948455613	 	1.23502309901
865	 	30	 	0.0438174846603	 	1.22109964688
870	 	30	 	0.0418567631545	 	1.20725305232
875	 	30	 	0.0400053909807	 	1.19344185541
880	 	30	 	0.038255910557	 	1.17973461135
830	 	40	 	0.0256781809155	 	1.33429350582
835	 	40	 	0.02415271853	 	1.31448497086
840	 	40	 	0.022707413146	 	1.29694894939
845	 	40	 	0.0213169364332	 	1.28132596203
850	 	40	 	0.0199665413001	 	1.26665646954
855	 	40	 	0.0186611051037	 	1.25224639599
860	 	40	 	0.0174075939852	 	1.23802044431
865	 	40	 	0.0162125081753	 	1.22394260894
870	 	40	 	0.015075227357	 	1.20994780666
875	 	40	 	0.0139882141103	 	1.19600217636
880	 	40	 	0.0129438026724	 	1.18217483144
830	 	50	 	-0.00956965328698	 	1.33601716031
835	 	50	 	-0.00982319361996	 	1.3161409117
840	 	50	 	-0.0100906521111	 	1.29856276574
845	 	50	 	-0.0103702540607	 	1.28291688493
850	 	50	 	-0.0106599425928	 	1.26822626434
855	 	50	 	-0.0109570834968	 	1.2537842666
860	 	50	 	-0.0112590323805	 	1.23951478573
865	 	50	 	-0.0115633853651	 	1.22538885619
870	 	50	 	-0.0118718956685	 	1.21135450571
875	 	50	 	-0.0121903548303	 	1.19738448729
880	 	50	 	-0.0125245990786	 	1.18354731991
830	 	60	 	-0.0447977153387	 	1.33550698452
835	 	60	 	-0.0437881229503	 	1.31576242126
840	 	60	 	-0.0428844822958	 	1.29828346846
845	 	60	 	-0.0420558035974	 	1.28271011216
850	 	60	 	-0.0412827094115	 	1.26808103826
855	 	60	 	-0.0405672886823	 	1.25370093785
860	 	60	 	-0.0399139820103	 	1.23949491396
865	 	60	 	-0.0393270589287	 	1.22543574509
870	 	60	 	-0.0388091267903	 	1.21147477708
875	 	60	 	-0.0383611782576	 	1.19758640026
880	 	60	 	-0.0379841162045	 	1.18383782772
830	 	70	 	-0.0797451560246	 	1.33278434294
835	 	70	 	-0.0774814500566	 	1.31336453182
840	 	70	 	-0.0754116367558	 	1.29612007854
845	 	70	 	-0.073478886306	 	1.2807094006
850	 	70	 	-0.0716485778782	 	1.26622127089
855	 	70	 	-0.0699271996028	 	1.25199648071
860	 	70	 	-0.0683256919156	 	1.23796333027
865	 	70	 	-0.0668544336551	 	1.22408923949
870	 	70	 	-0.0655165071668	 	1.21031571261
875	 	70	 	-0.0643079067737	 	1.19661210318
880	 	70	 	-0.0632244144592	 	1.1830438402
830	 	80	 	-0.114147798745	 	1.32787221437
835	 	80	 	-0.110641046914	 	1.30895354791
840	 	80	 	-0.107413208782	 	1.29207548782
845	 	80	 	-0.10438644989	 	1.27692435197
850	 	80	 	-0.101513333193	 	1.26266479528
855	 	80	 	-0.0988026862789	 	1.24869229189
860	 	80	 	-0.096269431561	 	1.23493986617
865	 	80	 	-0.0939276848627	 	1.22136468425
870	 	80	 	-0.091780682609	 	1.20788933643
875	 	80	 	-0.0898210926661	 	1.19447353966
880	 	80	 	-0.0880412958458	 	1.1811803236
830	 	90	 	-0.147766528869	 	1.32079445225
835	 	90	 	-0.143034114095	 	1.30254877713
840	 	90	 	-0.138667024251	 	1.28617073564
845	 	90	 	-0.1345674936	 	1.27138215287
850	 	90	 	-0.130675316925	 	1.25744420409
855	 	90	 	-0.126999777303	 	1.24382192615
860	 	90	 	-0.123557718404	 	1.23045437826
865	 	90	 	-0.120365056453	 	1.21728573135
870	 	90	 	-0.117425038906	 	1.20421458313
875	 	90	 	-0.114728606422	 	1.19118843798
880	 	90	 	-0.112266376723	 	1.17826716462
830	 	100	 	-0.180339322586	 	1.31157728413
835	 	100	 	-0.174408738779	 	1.29418488063
840	 	100	 	-0.168933332324	 	1.27844702787
845	 	100	 	-0.163793686544	 	1.26412842065
850	 	100	 	-0.158915373601	 	1.25060662469
855	 	100	 	-0.154307145569	 	1.23743058064
860	 	100	 	-0.149986853394	 	1.22454675975
865	 	100	 	-0.145971346737	 	1.21188525309
870	 	100	 	-0.142263629097	 	1.19931866238
875	 	100	 	-0.13885325342	 	1.18678126005
880	 	100	 	-0.135729431566	 	1.17432888274