TITLE = "B vs R and Z (Ulrickson)"
VARIABLES = "r","z","B_r","B_z"
ZONE , T ="22", I = 11, J = 21 DATAPACKING = POINT 
830	 	-100	 	0.361880194759	 	1.08487542009
835	 	-100	 	0.34746006562	 	1.08304217086
840	 	-100	 	0.328768964875	 	1.04481896933
845	 	-100	 	0.308548132435	 	0.983033170828
850	 	-100	 	0.289419267682	 	0.9334371595
855	 	-100	 	0.273836471474	 	0.921671126816
860	 	-100	 	0.264184633544	 	0.949091664444
865	 	-100	 	0.262649243701	 	0.999928387086
870	 	-100	 	0.268066686025	 	1.04501967003
875	 	-100	 	0.276019927603	 	1.06954562398
880	 	-100	 	0.28205052361	 	1.07401426056
830	 	-90	 	0.336947254886	 	1.08936870615
835	 	-90	 	0.337481574329	 	1.09852134795
840	 	-90	 	0.331380771792	 	1.07276784142
845	 	-90	 	0.314931632425	 	1.02269421112
850	 	-90	 	0.288495417548	 	0.977640812867
855	 	-90	 	0.260123207742	 	0.958672470618
860	 	-90	 	0.238558188888	 	0.967138429133
865	 	-90	 	0.231987833775	 	0.993901583245
870	 	-90	 	0.24032628667	 	1.02214092062
875	 	-90	 	0.255450744131	 	1.04326875645
880	 	-90	 	0.269075479948	 	1.05716652441
830	 	-80	 	0.302758350005	 	1.06905676151
835	 	-80	 	0.312816068661	 	1.08617120858
840	 	-80	 	0.315931002641	 	1.08215202925
845	 	-80	 	0.304468131304	 	1.06146806642
850	 	-80	 	0.277125692256	 	1.03628865781
855	 	-80	 	0.244513710875	 	1.01538121447
860	 	-80	 	0.218352620994	 	0.999640190966
865	 	-80	 	0.209648141348	 	0.990855954809
870	 	-80	 	0.219006023155	 	0.992491107041
875	 	-80	 	0.236929192043	 	1.00622550295
880	 	-80	 	0.253700257281	 	1.03112375561
830	 	-70	 	0.268221836443	 	1.04369069763
835	 	-70	 	0.279749732594	 	1.06476658935
840	 	-70	 	0.286061390148	 	1.08211509471
845	 	-70	 	0.279061807243	 	1.09328640947
850	 	-70	 	0.256753023993	 	1.09109104382
855	 	-70	 	0.228588172193	 	1.07042354515
860	 	-70	 	0.205103213096	 	1.03158861642
865	 	-70	 	0.196207744978	 	0.987538609627
870	 	-70	 	0.20283074404	 	0.962445746433
875	 	-70	 	0.217177153608	 	0.968477930706
880	 	-70	 	0.231252844717	 	1.00390695261
830	 	-60	 	0.241859359602	 	1.02269494513
835	 	-60	 	0.252285010919	 	1.0438539787
840	 	-60	 	0.259813343045	 	1.07687536162
845	 	-60	 	0.25765428042	 	1.11366095951
850	 	-60	 	0.243455334254	 	1.13126357521
855	 	-60	 	0.223178622335	 	1.11327900893
860	 	-60	 	0.203591064016	 	1.05946155799
865	 	-60	 	0.191101440872	 	0.990684893415
870	 	-60	 	0.187359288784	 	0.945800739221
875	 	-60	 	0.189390876389	 	0.944420346293
880	 	-60	 	0.194091817594	 	0.984347235379
830	 	-50	 	0.222304543521	 	1.00429841216
835	 	-50	 	0.23018127231	 	1.02285056615
840	 	-50	 	0.237203224938	 	1.06530584986
845	 	-50	 	0.238743478559	 	1.12004658471
850	 	-50	 	0.232462114	 	1.15438550231
855	 	-50	 	0.220279470651	 	1.14492347278
860	 	-50	 	0.204551607438	 	1.09092576931
865	 	-50	 	0.187585932523	 	1.01548250283
870	 	-50	 	0.171770005798	 	0.961493400487
875	 	-50	 	0.159569248837	 	0.950653431871
880	 	-50	 	0.153398776212	 	0.980963257296
830	 	-40	 	0.200776279475	 	0.993589993783
835	 	-40	 	0.202087871283	 	1.00855352882
840	 	-40	 	0.204118701904	 	1.05416851161
845	 	-40	 	0.205174054494	 	1.1175850117
850	 	-40	 	0.203814106122	 	1.16279132103
855	 	-40	 	0.19904786921	 	1.16398875046
860	 	-40	 	0.189954823777	 	1.12010601328
865	 	-40	 	0.175754425195	 	1.05189755781
870	 	-40	 	0.15839829134	 	0.997843817152
875	 	-40	 	0.142492140804	 	0.977446590812
880	 	-40	 	0.132653685259	 	0.989351124359
830	 	-30	 	0.17742502346	 	0.99909820256
835	 	-30	 	0.171861736965	 	1.0113166796
840	 	-30	 	0.167952340293	 	1.05428512718
845	 	-30	 	0.16651338083	 	1.11582816908
850	 	-30	 	0.167264097752	 	1.16188232083
855	 	-30	 	0.167848720809	 	1.16803655291
860	 	-30	 	0.165728495663	 	1.13315449112
865	 	-30	 	0.158560715612	 	1.07456836406
870	 	-30	 	0.147197380638	 	1.02435996276
875	 	-30	 	0.135593920072	 	0.998816335729
880	 	-30	 	0.127750874075	 	0.997111096069
830	 	-20	 	0.157245370195	 	1.01317483357
835	 	-20	 	0.150677462087	 	1.0233626393
840	 	-20	 	0.145972371137	 	1.06083694867
845	 	-20	 	0.14457790435	 	1.11499443834
850	 	-20	 	0.146523176894	 	1.15618696929
855	 	-20	 	0.149163199633	 	1.16316530442
860	 	-20	 	0.149609121351	 	1.13488656511
865	 	-20	 	0.145173109062	 	1.08534214767
870	 	-20	 	0.136298528385	 	1.04039632047
875	 	-20	 	0.126470480721	 	1.01319733817
880	 	-20	 	0.119226796698	 	1.00327702472
830	 	-10	 	0.138146534862	 	1.02231259843
835	 	-10	 	0.134011166271	 	1.03023132752
840	 	-10	 	0.131586432146	 	1.06296929781
845	 	-10	 	0.131881767314	 	1.11126507179
850	 	-10	 	0.134690734582	 	1.14925595257
855	 	-10	 	0.137509989748	 	1.15840112835
860	 	-10	 	0.137631488679	 	1.13771215705
865	 	-10	 	0.132542453151	 	1.09788425925
870	 	-10	 	0.122821335456	 	1.05864287933
875	 	-10	 	0.11204949753	 	1.03003950967
880	 	-10	 	0.103857297774	 	1.01197600528
830	 	0	 	0.115905728563	 	1.02771260012
835	 	0	 	0.112540219243	 	1.03325250979
840	 	0	 	0.110821009271	 	1.06193035451
845	 	0	 	0.11172308269	 	1.1056346244
850	 	0	 	0.115030207779	 	1.14176120963
855	 	0	 	0.118275515884	 	1.15409874098
860	 	0	 	0.118791849207	 	1.14168149361
865	 	0	 	0.114103581774	 	1.11195143881
870	 	0	 	0.104761691729	 	1.07857082998
875	 	0	 	0.0942572869256	 	1.04853480058
880	 	0	 	0.0861297817144	 	1.02212936585
830	 	10	 	0.0915365763814	 	1.03424950623
835	 	10	 	0.0881134999797	 	1.03768547583
840	 	10	 	0.0863253944044	 	1.06193376971
845	 	10	 	0.0873128401291	 	1.10017387931
850	 	10	 	0.0909761578111	 	1.13344522032
855	 	10	 	0.0948751340967	 	1.14814308459
860	 	10	 	0.0963586894687	 	1.14335394273
865	 	10	 	0.0929589611732	 	1.1233601402
870	 	10	 	0.0850528659803	 	1.09594051652
875	 	10	 	0.0757808207694	 	1.06512171286
880	 	10	 	0.0683317112523	 	1.03153413703
830	 	20	 	0.0669080049699	 	1.04010652168
835	 	20	 	0.0644130200062	 	1.04154479026
840	 	20	 	0.0634698305714	 	1.06144326541
845	 	20	 	0.065095173483	 	1.09423485436
850	 	20	 	0.0691700549244	 	1.12449323377
855	 	20	 	0.0734315966259	 	1.14114262682
860	 	20	 	0.075424340895	 	1.14332972207
865	 	20	 	0.0728589668132	 	1.13246584237
870	 	20	 	0.0659996787532	 	1.11098757306
875	 	20	 	0.0575912485133	 	1.08022414344
880	 	20	 	0.0504235657552	 	1.0410951239
830	 	30	 	0.0410082104847	 	1.04361305676
835	 	30	 	0.0389940038875	 	1.04300041342
840	 	30	 	0.0384859716669	 	1.05902769855
845	 	30	 	0.0404888067424	 	1.08720372782
850	 	30	 	0.0448897449972	 	1.11514264733
855	 	30	 	0.0494667274808	 	1.13394335012
860	 	30	 	0.0518081341994	 	1.1427981493
865	 	30	 	0.0496640475827	 	1.14057450472
870	 	30	 	0.0432589441585	 	1.12497652535
875	 	30	 	0.0352209975789	 	1.09494338749
880	 	30	 	0.028222786863	 	1.05163971222
830	 	40	 	0.0136224336006	 	1.04810518518
835	 	40	 	0.0108511177881	 	1.04563724177
840	 	40	 	0.00954612374112	 	1.05750743576
845	 	40	 	0.0109884079941	 	1.08044061283
850	 	40	 	0.0152170710226	 	1.10547909189
855	 	40	 	0.0199307283064	 	1.12617487907
860	 	40	 	0.022614276995	 	1.14178239844
865	 	40	 	0.0209196518942	 	1.14846518109
870	 	40	 	0.0150427282387	 	1.13889798289
875	 	40	 	0.00765063767958	 	1.10947952396
880	 	40	 	0.00145692423486	 	1.06163266028
830	 	50	 	-0.012386087291	 	1.05465632193
835	 	50	 	-0.0149355746081	 	1.05087556539
840	 	50	 	-0.0164820523557	 	1.05849312378
845	 	50	 	-0.0159213300162	 	1.07556877769
850	 	50	 	-0.0131055756463	 	1.09689425216
855	 	50	 	-0.00968678025053	 	1.11870646627
860	 	50	 	-0.00748370735134	 	1.1403452977
865	 	50	 	-0.00819715776357	 	1.15528226113
870	 	50	 	-0.0117529290157	 	1.15118615965
875	 	50	 	-0.0163525297292	 	1.12192642804
880	 	50	 	-0.0201637268851	 	1.06918223718
830	 	60	 	-0.0357376056887	 	1.05833148883
835	 	60	 	-0.0359852594191	 	1.05417489812
840	 	60	 	-0.0362126370284	 	1.05984629068
845	 	60	 	-0.036251180209	 	1.07403780886
850	 	60	 	-0.0360054351913	 	1.09331126424
855	 	60	 	-0.035515672971	 	1.11517195281
860	 	60	 	-0.0348364762087	 	1.13901110623
865	 	60	 	-0.0340251472705	 	1.15722601328
870	 	60	 	-0.0332287247452	 	1.15549090714
875	 	60	 	-0.0326814195532	 	1.12666588148
880	 	60	 	-0.0326160335006	 	1.0725157583
830	 	70	 	-0.0585114879355	 	1.05620401252
835	 	70	 	-0.0558902578673	 	1.05268730762
840	 	70	 	-0.0542321035184	 	1.05988492297
845	 	70	 	-0.0544346338266	 	1.07600902576
850	 	70	 	-0.0565301963724	 	1.0962675536
855	 	70	 	-0.0589205217997	 	1.11719710867
860	 	70	 	-0.0598583379897	 	1.13817286049
865	 	70	 	-0.0577200133943	 	1.15285363914
870	 	70	 	-0.0528227861308	 	1.14926544636
875	 	70	 	-0.0473693105629	 	1.12145355708
880	 	70	 	-0.0435940030586	 	1.07102666302
830	 	80	 	-0.0827219299933	 	1.04918388634
835	 	80	 	-0.0782651057585	 	1.04696635194
840	 	80	 	-0.0754200971769	 	1.05824843416
845	 	80	 	-0.0757426679757	 	1.07994479101
850	 	80	 	-0.0793406037403	 	1.10361663025
855	 	80	 	-0.0835941042904	 	1.12318950545
860	 	80	 	-0.0856330228233	 	1.13796637471
865	 	80	 	-0.0827839747839	 	1.14445758151
870	 	80	 	-0.0754170067394	 	1.13599742474
875	 	80	 	-0.0668586412041	 	1.1093102215
880	 	80	 	-0.0604879756443	 	1.06569558408
830	 	90	 	-0.109445128263	 	1.04035745373
835	 	90	 	-0.105203849305	 	1.03997755848
840	 	90	 	-0.102891810435	 	1.05667347329
845	 	90	 	-0.104102532914	 	1.08568152647
850	 	90	 	-0.108847835098	 	1.11384497649
855	 	90	 	-0.114157715184	 	1.13171146294
860	 	90	 	-0.116790672463	 	1.1384872303
865	 	90	 	-0.113725200296	 	1.13428345703
870	 	90	 	-0.105326138933	 	1.11913480927
875	 	90	 	-0.0952479227405	 	1.09314869468
880	 	90	 	-0.0872045044598	 	1.05725382134
830	 	100	 	-0.137135632721	 	1.03429154501
835	 	100	 	-0.134034853372	 	1.03640267363
840	 	100	 	-0.132969172675	 	1.05853754403
845	 	100	 	-0.135267004629	 	1.09436263496
850	 	100	 	-0.140769607101	 	1.12629476242
855	 	100	 	-0.146510913659	 	1.14171422705
860	 	100	 	-0.149272743622	 	1.13975114628
865	 	100	 	-0.146055635052	 	1.12409633886
870	 	100	 	-0.137229132373	 	1.10144485955
875	 	100	 	-0.126435529053	 	1.07526730277
880	 	100	 	-0.117376189271	 	1.04613483375