TITLE = "B vs R and Z (Ulrickson)"
VARIABLES = "r","z","B_r","B_z"
ZONE , T ="23", I = 11, J = 21 DATAPACKING = POINT 
830	 	-100	 	0.359816326099	 	1.08044091684
835	 	-100	 	0.345631672546	 	1.07825579621
840	 	-100	 	0.327442281973	 	1.04145499166
845	 	-100	 	0.30785467904	 	0.982330662828
850	 	-100	 	0.289366313349	 	0.935152161256
855	 	-100	 	0.274324028888	 	0.924494894082
860	 	-100	 	0.265009561905	 	0.951648351826
865	 	-100	 	0.263512867202	 	1.00133373981
870	 	-100	 	0.268696667153	 	1.04529601327
875	 	-100	 	0.276288658343	 	1.0691772867
880	 	-100	 	0.281976980363	 	1.07347731004
830	 	-90	 	0.335588617356	 	1.08546757116
835	 	-90	 	0.335678206694	 	1.09366484587
840	 	-90	 	0.329456603586	 	1.06869312383
845	 	-90	 	0.31336868628	 	1.02068874166
850	 	-90	 	0.287768455824	 	0.977754304111
855	 	-90	 	0.260387821783	 	0.960064783957
860	 	-90	 	0.239622573997	 	0.968902926333
865	 	-90	 	0.233333609163	 	0.995384207157
870	 	-90	 	0.241408428965	 	1.02315026168
875	 	-90	 	0.255988951357	 	1.04385083848
880	 	-90	 	0.269060724828	 	1.05737763415
830	 	-80	 	0.302232468032	 	1.06675323684
835	 	-80	 	0.311356602468	 	1.08255521033
840	 	-80	 	0.313852092791	 	1.07834728377
845	 	-80	 	0.302443265604	 	1.05840251978
850	 	-80	 	0.275915535681	 	1.03436381368
855	 	-80	 	0.244454888031	 	1.0146183416
860	 	-80	 	0.219309416312	 	1.0000158302
865	 	-80	 	0.211039544378	 	0.992200977818
870	 	-80	 	0.220184688988	 	0.99436093163
875	 	-80	 	0.23754957429	 	1.00803876179
880	 	-80	 	0.25372759831	 	1.0323332434
830	 	-70	 	0.26824185262	 	1.04342492076
835	 	-70	 	0.27867238186	 	1.06304733814
840	 	-70	 	0.284133340192	 	1.07921265627
845	 	-70	 	0.27694012693	 	1.08958235732
850	 	-70	 	0.255227129923	 	1.08729696333
855	 	-70	 	0.228058514391	 	1.06748491799
860	 	-70	 	0.205531126919	 	1.03043716675
865	 	-70	 	0.197139533725	 	0.988552805098
870	 	-70	 	0.203725761102	 	0.964974005092
875	 	-70	 	0.217726510837	 	0.971348879408
880	 	-70	 	0.231387837427	 	1.00600416084
830	 	-60	 	0.242070701198	 	1.02443058991
835	 	-60	 	0.251471839109	 	1.04415696341
840	 	-60	 	0.258126293296	 	1.075197359
845	 	-60	 	0.255592675905	 	1.10983197617
850	 	-60	 	0.241657837553	 	1.12618587827
855	 	-60	 	0.222031609226	 	1.10862136215
860	 	-60	 	0.203190129156	 	1.05690962818
865	 	-60	 	0.191265574301	 	0.991080415949
870	 	-60	 	0.187807673862	 	0.948418402182
875	 	-60	 	0.18991463636	 	0.947741882297
880	 	-60	 	0.194559706782	 	0.986918447947
830	 	-50	 	0.222514558744	 	1.00771166903
835	 	-50	 	0.229610377082	 	1.02494577078
840	 	-50	 	0.235905679327	 	1.06493450036
845	 	-50	 	0.236995878097	 	1.11660466371
850	 	-50	 	0.23065698119	 	1.14879998745
855	 	-50	 	0.21872719144	 	1.13921743459
860	 	-50	 	0.203460027183	 	1.0871634554
865	 	-50	 	0.187062671162	 	1.01479750987
870	 	-50	 	0.171823487906	 	0.963294499242
875	 	-50	 	0.160109704244	 	0.953474900646
880	 	-50	 	0.154240416939	 	0.983393680606
830	 	-40	 	0.201078866422	 	0.998097666372
835	 	-40	 	0.201983844152	 	1.01188465952
840	 	-40	 	0.203587681829	 	1.0548715206
845	 	-40	 	0.204274189809	 	1.11480792084
850	 	-40	 	0.20266991192	 	1.15736180371
855	 	-40	 	0.197828763148	 	1.15793787825
860	 	-40	 	0.188871807398	 	1.11552018196
865	 	-40	 	0.17505459499	 	1.05001495676
870	 	-40	 	0.158260475812	 	0.998333848946
875	 	-40	 	0.142925519326	 	0.979181579605
880	 	-40	 	0.133497193449	 	0.991235867132
830	 	-30	 	0.177878105418	 	1.00393004499
835	 	-30	 	0.172247430599	 	1.015081834
840	 	-30	 	0.168207664442	 	1.05551740388
845	 	-30	 	0.166545080839	 	1.11363242135
850	 	-30	 	0.166995973225	 	1.1569602178
855	 	-30	 	0.167311231345	 	1.16223420833
860	 	-30	 	0.165066561233	 	1.12837593871
865	 	-30	 	0.158025364892	 	1.07200708306
870	 	-30	 	0.147012846631	 	1.02389770673
875	 	-30	 	0.135828532999	 	0.99966709201
880	 	-30	 	0.128314996684	 	0.998502784979
830	 	-20	 	0.157702159974	 	1.01787836859
835	 	-20	 	0.151180903124	 	1.02708080171
840	 	-20	 	0.146448244014	 	1.06224297593
845	 	-20	 	0.144887859376	 	1.11326439632
850	 	-20	 	0.146528662808	 	1.15190178138
855	 	-20	 	0.148845987836	 	1.1579129299
860	 	-20	 	0.149082274118	 	1.13030893119
865	 	-20	 	0.144672256572	 	1.08251453153
870	 	-20	 	0.136048993869	 	1.03934988172
875	 	-20	 	0.126558202044	 	1.01343067558
880	 	-20	 	0.1195959038	 	1.0042891673
830	 	-10	 	0.138510590769	 	1.02693091931
835	 	-10	 	0.134392922816	 	1.03394714611
840	 	-10	 	0.131915557063	 	1.06457886325
845	 	-10	 	0.132033815947	 	1.11000440143
850	 	-10	 	0.134545250517	 	1.14558826856
855	 	-10	 	0.137060133364	 	1.15366954785
860	 	-10	 	0.136993927944	 	1.13331039839
865	 	-10	 	0.131949029658	 	1.09477732832
870	 	-10	 	0.122491140023	 	1.05700822431
875	 	-10	 	0.112064600787	 	1.02965161618
880	 	-10	 	0.104160479342	 	1.01259665303
830	 	0	 	0.116218789093	 	1.03230788559
835	 	0	 	0.112868656057	 	1.03703223262
840	 	0	 	0.111095206496	 	1.06378944278
845	 	0	 	0.111821755006	 	1.10485162708
850	 	0	 	0.114836827838	 	1.13868333538
855	 	0	 	0.117784805225	 	1.14983967822
860	 	0	 	0.118119367775	 	1.13740312507
865	 	0	 	0.113477560883	 	1.10852028
870	 	0	 	0.104397573146	 	1.07631398509
875	 	0	 	0.0942358465569	 	1.04750169272
880	 	0	 	0.0863949086902	 	1.02234337577
830	 	10	 	0.0918305712817	 	1.0387665264
835	 	10	 	0.0884447643998	 	1.041471988
840	 	10	 	0.0866227292649	 	1.0639977795
845	 	10	 	0.0874489150345	 	1.09984740686
850	 	10	 	0.0908255653534	 	1.13096091447
855	 	10	 	0.0944238855437	 	1.14437983411
860	 	10	 	0.0957141359837	 	1.1392357898
865	 	10	 	0.0923417462302	 	1.1196484674
870	 	10	 	0.0846744469777	 	1.09310414253
875	 	10	 	0.0757244900259	 	1.06347645958
880	 	10	 	0.0685503561641	 	1.03135708987
830	 	20	 	0.0671724193944	 	1.04451935634
835	 	20	 	0.0647190544417	 	1.04531075138
840	 	20	 	0.0637472225104	 	1.06368716914
845	 	20	 	0.0652186103237	 	1.09434597508
850	 	20	 	0.0690156026836	 	1.12259371436
855	 	20	 	0.0729831188049	 	1.13788078607
860	 	20	 	0.0747831510069	 	1.13939571031
865	 	20	 	0.0722361293875	 	1.12851424087
870	 	20	 	0.065599527114	 	1.10761670168
875	 	20	 	0.0574982306209	 	1.07799873374
880	 	20	 	0.0506000704296	 	1.04052957261
830	 	30	 	0.0412483786096	 	1.04793057019
835	 	30	 	0.0392846035611	 	1.04675448187
840	 	30	 	0.0387568052341	 	1.06145179078
845	 	30	 	0.0406140510271	 	1.08773948882
850	 	30	 	0.0447446225577	 	1.11380599482
855	 	30	 	0.0490343754187	 	1.13116288069
860	 	30	 	0.0511893044708	 	1.13904117272
865	 	30	 	0.0490694011143	 	1.13639279405
870	 	30	 	0.0428924946463	 	1.12108874052
875	 	30	 	0.0351668854635	 	1.09214737755
880	 	30	 	0.0284431022536	 	1.05067227453
830	 	40	 	0.0138457274847	 	1.05228515564
835	 	40	 	0.0111488648878	 	1.04933575221
840	 	40	 	0.00984977008148	 	1.06007709974
845	 	40	 	0.0111704067122	 	1.08138215786
850	 	40	 	0.0151487727183	 	1.1046983782
855	 	40	 	0.0195915009409	 	1.12386938801
860	 	40	 	0.0221014552025	 	1.13818491733
865	 	40	 	0.0204407734736	 	1.14402020966
870	 	40	 	0.0147978394464	 	1.1344534998
875	 	40	 	0.00771796122905	 	1.10608225456
880	 	40	 	0.00179067789802	 	1.06025667819
830	 	50	 	-0.0122275393364	 	1.0586554344
835	 	50	 	-0.0147083968974	 	1.05446261826
840	 	50	 	-0.0162335384875	 	1.06114300152
845	 	50	 	-0.0157428910173	 	1.07684564281
850	 	50	 	-0.0130913838049	 	1.09660190156
855	 	50	 	-0.00985585867563	 	1.11682184054
860	 	50	 	-0.00777278563616	 	1.13687713609
865	 	50	 	-0.00846605410736	 	1.15057344412
870	 	50	 	-0.0118658841532	 	1.14621070139
875	 	50	 	-0.0162572170338	 	1.11797211759
880	 	50	 	-0.0198927762459	 	1.06745277616
830	 	60	 	-0.0357105771493	 	1.06222961438
835	 	60	 	-0.0359437003576	 	1.05768860175
840	 	60	 	-0.0361590649549	 	1.06250860332
845	 	60	 	-0.0361925506171	 	1.07544488899
850	 	60	 	-0.0359509841341	 	1.09322547528
855	 	60	 	-0.0354728997994	 	1.11347621705
860	 	60	 	-0.0348107311792	 	1.13561835369
865	 	60	 	-0.0340196312216	 	1.15243344334
870	 	60	 	-0.0332433948135	 	1.15032000118
875	 	60	 	-0.0327119261539	 	1.12249899486
880	 	60	 	-0.0326537690471	 	1.07064681684
830	 	70	 	-0.0586293348748	 	1.06014841805
835	 	70	 	-0.0560572995887	 	1.05622030815
840	 	70	 	-0.0544044844594	 	1.06249946693
845	 	70	 	-0.0545302923726	 	1.07728285453
850	 	70	 	-0.0564674426387	 	1.09600572287
855	 	70	 	-0.0586907788603	 	1.11536895703
860	 	70	 	-0.0595327514818	 	1.13477865162
865	 	70	 	-0.0574440375163	 	1.14822552429
870	 	70	 	-0.0527328211552	 	1.14436232065
875	 	70	 	-0.0475117221349	 	1.1175459765
880	 	70	 	-0.0439236585961	 	1.06930241989
830	 	80	 	-0.0829486503972	 	1.05329038261
835	 	80	 	-0.0785793728804	 	1.05059259935
840	 	80	 	-0.0757462481518	 	1.06077110784
845	 	80	 	-0.0759385705795	 	1.08088289916
850	 	80	 	-0.0792629320558	 	1.10287846086
855	 	80	 	-0.0832213805803	 	1.12096356215
860	 	80	 	-0.0850768351979	 	1.13447527584
865	 	80	 	-0.0822801382071	 	1.14013145058
870	 	80	 	-0.0751909354016	 	1.13166175846
875	 	80	 	-0.0669945673995	 	1.10598531523
880	 	80	 	-0.0609264943447	 	1.06433105661
830	 	90	 	-0.109718777807	 	1.04467150372
835	 	90	 	-0.105561579238	 	1.04371604136
840	 	90	 	-0.103244277335	 	1.05905736165
845	 	90	 	-0.104285439883	 	1.0861506505
850	 	90	 	-0.108696670113	 	1.11244381289
855	 	90	 	-0.113648655096	 	1.12891886586
860	 	90	 	-0.116053405444	 	1.13482060314
865	 	90	 	-0.113032802817	 	1.13030653129
870	 	90	 	-0.104941455141	 	1.11550698025
875	 	90	 	-0.0952743329881	 	1.09057272216
880	 	90	 	-0.0875830879144	 	1.05637678775
830	 	100	 	-0.137417895835	 	1.03876471585
835	 	100	 	-0.134378648839	 	1.04019405416
840	 	100	 	-0.133282882901	 	1.06071700792
845	 	100	 	-0.135386097975	 	1.09429586161
850	 	100	 	-0.140531268908	 	1.12416882181
855	 	100	 	-0.145894790502	 	1.13830568867
860	 	100	 	-0.148413711445	 	1.13587940219
865	 	100	 	-0.145233573045	 	1.12046240385
870	 	100	 	-0.136713815778	 	1.0985391537
875	 	100	 	-0.126335953597	 	1.07346886127
880	 	100	 	-0.117637701376	 	1.04578215809