TITLE = "0D Field KB"
VARIABLES = N ,"KB_Ha100Rem1Re1000"
ZONE DATAPACKING = POINT
    0.200000000000E+001    0.799992000074E-009
    0.520000000000E+002    0.540520789107E-006
    0.102000000000E+003    0.207820799790E-005
    0.152000000000E+003    0.460902495802E-005
    0.202000000000E+003    0.812451156195E-005
    0.252000000000E+003    0.126141332440E-004
    0.302000000000E+003    0.180664794939E-004
    0.352000000000E+003    0.244698817000E-004
    0.402000000000E+003    0.318127148378E-004
    0.452000000000E+003    0.400835424962E-004
    0.502000000000E+003    0.492711835095E-004
    0.552000000000E+003    0.593647384817E-004
    0.602000000000E+003    0.703535954917E-004
    0.652000000000E+003    0.822274250229E-004
    0.702000000000E+003    0.949761695021E-004
    0.752000000000E+003    0.108590030355E-003
    0.802000000000E+003    0.123059454188E-003
    0.852000000000E+003    0.138375118968E-003
    0.902000000000E+003    0.154527920684E-003
    0.952000000000E+003    0.171508960706E-003
    0.100200000000E+004    0.189309533956E-003
    0.105200000000E+004    0.207921117888E-003
    0.110200000000E+004    0.227335362301E-003
    0.115200000000E+004    0.247544079933E-003
    0.120200000000E+004    0.268539237784E-003
    0.125200000000E+004    0.290312949091E-003
    0.130200000000E+004    0.312857465935E-003
    0.135200000000E+004    0.336165172404E-003
    0.140200000000E+004    0.360228578270E-003
    0.145200000000E+004    0.385040313121E-003
    0.150200000000E+004    0.410593120914E-003
    0.155200000000E+004    0.436879854936E-003
    0.160200000000E+004    0.463893473123E-003
    0.165200000000E+004    0.491627033698E-003
    0.170200000000E+004    0.520073691095E-003
    0.175200000000E+004    0.549226692160E-003
    0.180200000000E+004    0.579079372599E-003
    0.185200000000E+004    0.609625153643E-003
    0.190200000000E+004    0.640857538904E-003
    0.195200000000E+004    0.672770111428E-003
    0.200200000000E+004    0.705356530953E-003
    0.205200000000E+004    0.738610531321E-003
    0.210200000000E+004    0.772525918031E-003
    0.215200000000E+004    0.807096565936E-003
    0.220200000000E+004    0.842316417063E-003
    0.225200000000E+004    0.878179478552E-003
    0.230200000000E+004    0.914679820692E-003
    0.235200000000E+004    0.951811575050E-003
    0.240200000000E+004    0.989568932707E-003
    0.245200000000E+004    0.102794614261E-002
    0.250200000000E+004    0.106693751002E-002
    0.255200000000E+004    0.110653739495E-002
    0.260200000000E+004    0.114674021079E-002
    0.265200000000E+004    0.118754042292E-002
    0.270200000000E+004    0.122893254741E-002
    0.275200000000E+004    0.127091114973E-002
    0.280200000000E+004    0.131347084358E-002
    0.285200000000E+004    0.135660628973E-002
    0.290200000000E+004    0.140031219497E-002
    0.295200000000E+004    0.144458331107E-002
    0.300200000000E+004    0.148941443378E-002
    0.305200000000E+004    0.153480040188E-002
    0.310200000000E+004    0.158073609628E-002
    0.315200000000E+004    0.162721643910E-002
    0.320200000000E+004    0.167423639283E-002
    0.325200000000E+004    0.172179095947E-002
    0.330200000000E+004    0.176987517981E-002
    0.335200000000E+004    0.181848413265E-002
    0.340200000000E+004    0.186761293413E-002
    0.345200000000E+004    0.191725673700E-002
    0.350200000000E+004    0.196741072995E-002
    0.355200000000E+004    0.201807013700E-002
    0.360200000000E+004    0.206923021678E-002
    0.365200000000E+004    0.212088626201E-002
    0.370200000000E+004    0.217303359880E-002
    0.375200000000E+004    0.222566758621E-002
    0.380200000000E+004    0.227878361566E-002
    0.385200000000E+004    0.233237711042E-002
    0.390200000000E+004    0.238644352514E-002
    0.395200000000E+004    0.244097834530E-002
    0.400200000000E+004    0.249597708677E-002
    0.405200000000E+004    0.255143529531E-002
    0.410200000000E+004    0.260734854609E-002
    0.415200000000E+004    0.266371244330E-002
    0.420200000000E+004    0.272052261971E-002
    0.425200000000E+004    0.277777473632E-002
    0.430200000000E+004    0.283546448194E-002
    0.435200000000E+004    0.289358757281E-002
    0.440200000000E+004    0.295213975223E-002
    0.445200000000E+004    0.301111679018E-002
    0.450200000000E+004    0.307051448295E-002
    0.455200000000E+004    0.313032865277E-002
    0.460200000000E+004    0.319055514750E-002
    0.465200000000E+004    0.325118984037E-002
    0.470200000000E+004    0.331222862960E-002
    0.475200000000E+004    0.337366743819E-002
    0.480200000000E+004    0.343550221352E-002
    0.485200000000E+004    0.349772892712E-002
    0.490200000000E+004    0.356034357437E-002
    0.495200000000E+004    0.362334217414E-002
    0.500200000000E+004    0.368672076857E-002
    0.505200000000E+004    0.375047542286E-002
    0.510200000000E+004    0.381460222496E-002
    0.515200000000E+004    0.387909728540E-002
    0.520200000000E+004    0.394395673699E-002
    0.525200000000E+004    0.400917673464E-002
    0.530200000000E+004    0.407475345505E-002
    0.535200000000E+004    0.414068309651E-002
    0.540200000000E+004    0.420696187864E-002
    0.545200000000E+004    0.427358604219E-002
    0.550200000000E+004    0.434055184887E-002
    0.555200000000E+004    0.440785558116E-002
    0.560200000000E+004    0.447549354210E-002
    0.565200000000E+004    0.454346205510E-002
    0.570200000000E+004    0.461175746373E-002
    0.575200000000E+004    0.468037613155E-002
    0.580200000000E+004    0.474931444184E-002
    0.585200000000E+004    0.481856879750E-002
    0.590200000000E+004    0.488813562081E-002
    0.595200000000E+004    0.495801135335E-002
    0.600200000000E+004    0.502819245582E-002
    0.605200000000E+004    0.509867540787E-002
    0.610200000000E+004    0.516945670795E-002
    0.615200000000E+004    0.524053287313E-002
    0.620200000000E+004    0.531190043894E-002
    0.625200000000E+004    0.538355595917E-002
    0.630200000000E+004    0.545549600577E-002
    0.635200000000E+004    0.552771716869E-002
    0.640200000000E+004    0.560021605581E-002
    0.645200000000E+004    0.567298929275E-002
    0.650200000000E+004    0.574603352281E-002
    0.655200000000E+004    0.581934540676E-002
    0.660200000000E+004    0.589292162271E-002
    0.665200000000E+004    0.596675886599E-002
    0.670200000000E+004    0.604085384898E-002
    0.675200000000E+004    0.611520330102E-002
    0.680200000000E+004    0.618980396833E-002
    0.685200000000E+004    0.626465261388E-002
    0.690200000000E+004    0.633974601732E-002
    0.695200000000E+004    0.641508097483E-002
    0.700200000000E+004    0.649065429899E-002
    0.705200000000E+004    0.656646281869E-002
    0.710200000000E+004    0.664250337898E-002
    0.715200000000E+004    0.671877284096E-002
    0.720200000000E+004    0.679526808170E-002
    0.725200000000E+004    0.687198599421E-002
    0.730200000000E+004    0.694892348730E-002
    0.735200000000E+004    0.702607748550E-002
    0.740200000000E+004    0.710344492898E-002
    0.745200000000E+004    0.718102277342E-002
    0.750200000000E+004    0.725880798989E-002
    0.755200000000E+004    0.733679756477E-002
    0.760200000000E+004    0.741498849966E-002
    0.765200000000E+004    0.749337781132E-002
    0.770200000000E+004    0.757196253162E-002
    0.775200000000E+004    0.765073970745E-002
    0.780200000000E+004    0.772970640067E-002
    0.785200000000E+004    0.780885968795E-002
    0.790200000000E+004    0.788819666076E-002
    0.795200000000E+004    0.796771442518E-002
    0.800200000000E+004    0.804741010191E-002
    0.805200000000E+004    0.812728082616E-002
    0.810200000000E+004    0.820732374762E-002
    0.815200000000E+004    0.828753603040E-002
    0.820200000000E+004    0.836791485298E-002
    0.825200000000E+004    0.844845740814E-002
    0.830200000000E+004    0.852916090282E-002
    0.835200000000E+004    0.861002255812E-002
    0.840200000000E+004    0.869103960914E-002
    0.845200000000E+004    0.877220930497E-002
    0.850200000000E+004    0.885352890866E-002
    0.855200000000E+004    0.893499569712E-002
    0.860200000000E+004    0.901660696115E-002
    0.865200000000E+004    0.909836000534E-002
    0.870200000000E+004    0.918025214800E-002
    0.875200000000E+004    0.926228072110E-002
    0.880200000000E+004    0.934444307016E-002
    0.885200000000E+004    0.942673655423E-002
    0.890200000000E+004    0.950915854584E-002
    0.895200000000E+004    0.959170643095E-002
    0.900200000000E+004    0.967437760893E-002
    0.905200000000E+004    0.975716949254E-002
    0.910200000000E+004    0.984007950785E-002
    0.915200000000E+004    0.992310509416E-002
    0.920200000000E+004    0.100062437040E-001
    0.925200000000E+004    0.100894928029E-001
    0.930200000000E+004    0.101728498696E-001
    0.935200000000E+004    0.102563123959E-001
    0.940200000000E+004    0.103398778864E-001
    0.945200000000E+004    0.104235438589E-001
    0.950200000000E+004    0.105073078442E-001
    0.955200000000E+004    0.105911673857E-001
    0.960200000000E+004    0.106751200401E-001
    0.965200000000E+004    0.107591633765E-001
    0.970200000000E+004    0.108432949768E-001
    0.975200000000E+004    0.109275124357E-001
    0.980200000000E+004    0.110118133606E-001
    0.985200000000E+004    0.110961953714E-001
    0.990200000000E+004    0.111806561007E-001
    0.995200000000E+004    0.112651931939E-001
    0.100020000000E+005    0.113498043086E-001
    0.100520000000E+005    0.114344871152E-001
    0.101020000000E+005    0.115192392962E-001
    0.101520000000E+005    0.116040585469E-001
    0.102020000000E+005    0.116889425746E-001
    0.102520000000E+005    0.117738890992E-001
    0.103020000000E+005    0.118588958529E-001
    0.103520000000E+005    0.119439605802E-001
    0.104020000000E+005    0.120290810378E-001
    0.104520000000E+005    0.121142549948E-001
    0.105020000000E+005    0.121994802324E-001
    0.105520000000E+005    0.122847545438E-001
    0.106020000000E+005    0.123700757345E-001
    0.106520000000E+005    0.124554416221E-001
    0.107020000000E+005    0.125408500361E-001
    0.107520000000E+005    0.126262988183E-001
    0.108020000000E+005    0.127117858223E-001
    0.108520000000E+005    0.127973089139E-001
    0.109020000000E+005    0.128828659708E-001
    0.109520000000E+005    0.129684548825E-001
    0.110020000000E+005    0.130540735505E-001
    0.110520000000E+005    0.131397198880E-001
    0.111020000000E+005    0.132253918203E-001
    0.111520000000E+005    0.133110872844E-001
    0.112020000000E+005    0.133968042289E-001
    0.112520000000E+005    0.134825406146E-001
    0.113020000000E+005    0.135682944137E-001
    0.113520000000E+005    0.136540636102E-001
    0.114020000000E+005    0.137398462000E-001
    0.114520000000E+005    0.138256401902E-001
    0.115020000000E+005    0.139114435998E-001
    0.115520000000E+005    0.139972544595E-001
    0.116020000000E+005    0.140830708112E-001
    0.116520000000E+005    0.141688907088E-001
    0.117020000000E+005    0.142547122177E-001
    0.117520000000E+005    0.143405334145E-001
    0.118020000000E+005    0.144263523875E-001
    0.118520000000E+005    0.145121672365E-001
    0.119020000000E+005    0.145979760726E-001
    0.119520000000E+005    0.146837770183E-001
    0.120020000000E+005    0.147695682074E-001
    0.120520000000E+005    0.148553477853E-001
    0.121020000000E+005    0.149411139087E-001
    0.121520000000E+005    0.150268647455E-001
    0.122020000000E+005    0.151125984751E-001
    0.122520000000E+005    0.151983132878E-001
    0.123020000000E+005    0.152840073856E-001
    0.123520000000E+005    0.153696789812E-001
    0.124020000000E+005    0.154553262988E-001
    0.124520000000E+005    0.155409475738E-001
    0.125020000000E+005    0.156265410526E-001
    0.125520000000E+005    0.157121049930E-001
    0.126020000000E+005    0.157976376635E-001
    0.126520000000E+005    0.158831373441E-001
    0.127020000000E+005    0.159686023257E-001
    0.127520000000E+005    0.160540309099E-001
    0.128020000000E+005    0.161394214098E-001
    0.128520000000E+005    0.162247721491E-001
    0.129020000000E+005    0.163100814626E-001
    0.129520000000E+005    0.163953476963E-001
    0.130020000000E+005    0.164805692068E-001
    0.130520000000E+005    0.165657443617E-001
    0.131020000000E+005    0.166508715394E-001
    0.131520000000E+005    0.167359491294E-001
    0.132020000000E+005    0.168209755316E-001
    0.132520000000E+005    0.169059491569E-001
    0.133020000000E+005    0.169908684271E-001
    0.133520000000E+005    0.170757317745E-001
    0.134020000000E+005    0.171605376424E-001
    0.134520000000E+005    0.172452844847E-001
    0.135020000000E+005    0.173299707660E-001
    0.135520000000E+005    0.174145949614E-001
    0.136020000000E+005    0.174991555569E-001
    0.136520000000E+005    0.175836510489E-001
    0.137020000000E+005    0.176680799443E-001
    0.137520000000E+005    0.177524407607E-001
    0.138020000000E+005    0.178367320264E-001
    0.138520000000E+005    0.179209522799E-001
    0.139020000000E+005    0.180051000706E-001
    0.139520000000E+005    0.180891739580E-001
    0.140020000000E+005    0.181731725121E-001
    0.140520000000E+005    0.182570943134E-001
    0.141020000000E+005    0.183409379528E-001
    0.141520000000E+005    0.184247020313E-001
    0.142020000000E+005    0.185083851606E-001
    0.142520000000E+005    0.185919859626E-001
    0.143020000000E+005    0.186755030694E-001
    0.143520000000E+005    0.187589351236E-001
    0.144020000000E+005    0.188422807778E-001
    0.144520000000E+005    0.189255386950E-001
    0.145020000000E+005    0.190087075480E-001
    0.145520000000E+005    0.190917860202E-001
    0.146020000000E+005    0.191747728049E-001
    0.146520000000E+005    0.192576666057E-001
    0.147020000000E+005    0.193404661361E-001
    0.147520000000E+005    0.194231701198E-001
    0.148020000000E+005    0.195057772905E-001
    0.148520000000E+005    0.195882863919E-001
    0.149020000000E+005    0.196706961777E-001
    0.149520000000E+005    0.197530054113E-001
    0.150020000000E+005    0.198352128664E-001
    0.150520000000E+005    0.199173173264E-001
    0.151020000000E+005    0.199993175846E-001
    0.151520000000E+005    0.200812124442E-001
    0.152020000000E+005    0.201630007182E-001
    0.152520000000E+005    0.202446812295E-001
    0.153020000000E+005    0.203262528106E-001
    0.153520000000E+005    0.204077143037E-001
    0.154020000000E+005    0.204890645608E-001
    0.154520000000E+005    0.205703024435E-001
    0.155020000000E+005    0.206514268233E-001
    0.155520000000E+005    0.207324365809E-001
    0.156020000000E+005    0.208133306072E-001
    0.156520000000E+005    0.208941078021E-001
    0.157020000000E+005    0.209747670754E-001
    0.157520000000E+005    0.210553073463E-001
    0.158020000000E+005    0.211357275432E-001
    0.158520000000E+005    0.212160266044E-001
    0.159020000000E+005    0.212962034773E-001
    0.159520000000E+005    0.213762571189E-001
    0.160020000000E+005    0.214561864956E-001
    0.160520000000E+005    0.215359905830E-001
    0.161020000000E+005    0.216156683660E-001
    0.161520000000E+005    0.216952188389E-001
    0.162020000000E+005    0.217746410051E-001
    0.162520000000E+005    0.218539338772E-001
    0.163020000000E+005    0.219330964772E-001
    0.163520000000E+005    0.220121278360E-001
    0.164020000000E+005    0.220910269939E-001
    0.164520000000E+005    0.221697930001E-001
    0.165020000000E+005    0.222484249130E-001
    0.165520000000E+005    0.223269217999E-001
    0.166020000000E+005    0.224052827371E-001
    0.166520000000E+005    0.224835068101E-001
    0.167020000000E+005    0.225615931131E-001
    0.167520000000E+005    0.226395407491E-001
    0.168020000000E+005    0.227173488304E-001
    0.168520000000E+005    0.227950164778E-001
    0.169020000000E+005    0.228725428211E-001
    0.169520000000E+005    0.229499269989E-001
    0.170020000000E+005    0.230271681585E-001
    0.170520000000E+005    0.231042654557E-001
    0.171020000000E+005    0.231812180553E-001
    0.171520000000E+005    0.232580251306E-001
    0.172020000000E+005    0.233346858636E-001
    0.172520000000E+005    0.234111994449E-001
    0.173020000000E+005    0.234875650735E-001
    0.173520000000E+005    0.235637819572E-001
    0.174020000000E+005    0.236398493121E-001
    0.174520000000E+005    0.237157663629E-001
    0.175020000000E+005    0.237915323426E-001
    0.175520000000E+005    0.238671464925E-001
    0.176020000000E+005    0.239426080624E-001
    0.176520000000E+005    0.240179163106E-001
    0.177020000000E+005    0.240930705034E-001
    0.177520000000E+005    0.241680699156E-001
    0.178020000000E+005    0.242429138301E-001
    0.178520000000E+005    0.243176015380E-001
    0.179020000000E+005    0.243921323387E-001
    0.179520000000E+005    0.244665055395E-001
    0.180020000000E+005    0.245407204558E-001
    0.180520000000E+005    0.246147764114E-001
    0.181020000000E+005    0.246886727377E-001
    0.181520000000E+005    0.247624087744E-001
    0.182020000000E+005    0.248359838691E-001
    0.182520000000E+005    0.249093973773E-001
    0.183020000000E+005    0.249826486624E-001
    0.183520000000E+005    0.250557370956E-001
    0.184020000000E+005    0.251286620558E-001
    0.184520000000E+005    0.252014229300E-001
    0.185020000000E+005    0.252740191128E-001
    0.185520000000E+005    0.253464500064E-001
    0.186020000000E+005    0.254187150210E-001
    0.186520000000E+005    0.254908135742E-001
    0.187020000000E+005    0.255627450912E-001
    0.187520000000E+005    0.256345090050E-001
    0.188020000000E+005    0.257061047559E-001
    0.188520000000E+005    0.257775317918E-001
    0.189020000000E+005    0.258487895680E-001
    0.189520000000E+005    0.259198775474E-001
    0.190020000000E+005    0.259907952004E-001
    0.190520000000E+005    0.260615420044E-001
    0.191020000000E+005    0.261321174444E-001
    0.191520000000E+005    0.262025210127E-001
    0.192020000000E+005    0.262727522089E-001
    0.192520000000E+005    0.263428105395E-001
    0.193020000000E+005    0.264126955185E-001
    0.193520000000E+005    0.264824066670E-001
    0.194020000000E+005    0.265519435132E-001
    0.194520000000E+005    0.266213055925E-001
    0.195020000000E+005    0.266904924472E-001
    0.195520000000E+005    0.267595036268E-001
    0.196020000000E+005    0.268283386875E-001
    0.196520000000E+005    0.268969971926E-001
    0.197020000000E+005    0.269654787124E-001
    0.197520000000E+005    0.270337828238E-001
    0.198020000000E+005    0.271019091109E-001
    0.198520000000E+005    0.271698571644E-001
    0.199020000000E+005    0.272376265818E-001
    0.199520000000E+005    0.273052169674E-001
    0.200020000000E+005    0.273726279321E-001
    0.200520000000E+005    0.274398590934E-001
    0.201020000000E+005    0.275069100756E-001
    0.201520000000E+005    0.275737805094E-001
    0.202020000000E+005    0.276404700323E-001
    0.202520000000E+005    0.277069782881E-001
    0.203020000000E+005    0.277733049271E-001
    0.203520000000E+005    0.278394496062E-001
    0.204020000000E+005    0.279054119887E-001
    0.204520000000E+005    0.279711917441E-001
    0.205020000000E+005    0.280367885484E-001
    0.205520000000E+005    0.281022020838E-001
    0.206020000000E+005    0.281674320387E-001
    0.206520000000E+005    0.282324781079E-001
    0.207020000000E+005    0.282973399924E-001
    0.207520000000E+005    0.283620173993E-001
    0.208020000000E+005    0.284265100419E-001
    0.208520000000E+005    0.284908176394E-001
    0.209020000000E+005    0.285549399172E-001
    0.209520000000E+005    0.286188766067E-001
    0.210020000000E+005    0.286826274453E-001
    0.210520000000E+005    0.287461921763E-001
    0.211020000000E+005    0.288095705489E-001
    0.211520000000E+005    0.288727623183E-001
    0.212020000000E+005    0.289357672454E-001
    0.212520000000E+005    0.289985850971E-001
    0.213020000000E+005    0.290612156458E-001
    0.213520000000E+005    0.291236586698E-001
    0.214020000000E+005    0.291859139531E-001
    0.214520000000E+005    0.292479812853E-001
    0.215020000000E+005    0.293098604616E-001
    0.215520000000E+005    0.293715512830E-001
    0.216020000000E+005    0.294330535559E-001
    0.216520000000E+005    0.294943670922E-001
    0.217020000000E+005    0.295554917095E-001
    0.217520000000E+005    0.296164272305E-001
    0.218020000000E+005    0.296771734836E-001
    0.218520000000E+005    0.297377303025E-001
    0.219020000000E+005    0.297980975262E-001
    0.219520000000E+005    0.298582749991E-001
    0.220020000000E+005    0.299182625709E-001
    0.220520000000E+005    0.299780600964E-001
    0.221020000000E+005    0.300376674358E-001
    0.221520000000E+005    0.300970844543E-001
    0.222020000000E+005    0.301563110225E-001
    0.222520000000E+005    0.302153470157E-001
    0.223020000000E+005    0.302741923146E-001
    0.223520000000E+005    0.303328468048E-001
    0.224020000000E+005    0.303913103770E-001
    0.224520000000E+005    0.304495829268E-001
    0.225020000000E+005    0.305076643548E-001
    0.225520000000E+005    0.305655545664E-001
    0.226020000000E+005    0.306232534721E-001
    0.226520000000E+005    0.306807609868E-001
    0.227020000000E+005    0.307380770307E-001
    0.227520000000E+005    0.307952015283E-001
    0.228020000000E+005    0.308521344093E-001
    0.228520000000E+005    0.309088756076E-001
    0.229020000000E+005    0.309654250623E-001
    0.229520000000E+005    0.310217827167E-001
    0.230020000000E+005    0.310779485189E-001
    0.230520000000E+005    0.311339224216E-001
    0.231020000000E+005    0.311897043819E-001
    0.231520000000E+005    0.312452943614E-001
    0.232020000000E+005    0.313006923263E-001
    0.232520000000E+005    0.313558982471E-001
    0.233020000000E+005    0.314109120989E-001
    0.233520000000E+005    0.314657338608E-001
    0.234020000000E+005    0.315203635168E-001
    0.234520000000E+005    0.315748010546E-001
    0.235020000000E+005    0.316290464665E-001
    0.235520000000E+005    0.316830997490E-001
    0.236020000000E+005    0.317369609027E-001
    0.236520000000E+005    0.317906299325E-001
    0.237020000000E+005    0.318441068475E-001
    0.237520000000E+005    0.318973916606E-001
    0.238020000000E+005    0.319504843892E-001
    0.238520000000E+005    0.320033850544E-001
    0.239020000000E+005    0.320560936814E-001
    0.239520000000E+005    0.321086102995E-001
    0.240020000000E+005    0.321609349419E-001
    0.240520000000E+005    0.322130676455E-001
    0.241020000000E+005    0.322650084515E-001
    0.241520000000E+005    0.323167574045E-001
    0.242020000000E+005    0.323683145533E-001
    0.242520000000E+005    0.324196799503E-001
    0.243020000000E+005    0.324708536518E-001
    0.243520000000E+005    0.325218357176E-001
    0.244020000000E+005    0.325726262115E-001
    0.244520000000E+005    0.326232252006E-001
    0.245020000000E+005    0.326736327559E-001
    0.245520000000E+005    0.327238489520E-001
    0.246020000000E+005    0.327738738670E-001
    0.246520000000E+005    0.328237075827E-001
    0.247020000000E+005    0.328733501842E-001
    0.247520000000E+005    0.329228017602E-001
    0.248020000000E+005    0.329720624028E-001
    0.248520000000E+005    0.330211322077E-001
    0.249020000000E+005    0.330700112737E-001
    0.249520000000E+005    0.331186997031E-001
    0.250020000000E+005    0.331671976018E-001
    0.250520000000E+005    0.332155050786E-001
    0.251020000000E+005    0.332636222459E-001
    0.251520000000E+005    0.333115492192E-001
    0.252020000000E+005    0.333592861172E-001
    0.252520000000E+005    0.334068330618E-001
    0.253020000000E+005    0.334541901781E-001
    0.253520000000E+005    0.335013575944E-001
    0.254020000000E+005    0.335483354419E-001
    0.254520000000E+005    0.335951238552E-001
    0.255020000000E+005    0.336417229717E-001
    0.255520000000E+005    0.336881329318E-001
    0.256020000000E+005    0.337343538791E-001
    0.256520000000E+005    0.337803859600E-001
    0.257020000000E+005    0.338262293239E-001
    0.257520000000E+005    0.338718841231E-001
    0.258020000000E+005    0.339173505127E-001
    0.258520000000E+005    0.339626286508E-001
    0.259020000000E+005    0.340077186983E-001
    0.259520000000E+005    0.340526208188E-001
    0.260020000000E+005    0.340973351788E-001
    0.260520000000E+005    0.341418619474E-001
    0.261020000000E+005    0.341862012966E-001
    0.261520000000E+005    0.342303534009E-001
    0.262020000000E+005    0.342743184375E-001
    0.262520000000E+005    0.343180965864E-001
    0.263020000000E+005    0.343616880301E-001
    0.263520000000E+005    0.344050929537E-001
    0.264020000000E+005    0.344483115448E-001
    0.264520000000E+005    0.344913439937E-001
    0.265020000000E+005    0.345341904930E-001
    0.265520000000E+005    0.345768512379E-001
    0.266020000000E+005    0.346193264260E-001
    0.266520000000E+005    0.346616162573E-001
    0.267020000000E+005    0.347037209344E-001
    0.267520000000E+005    0.347456406621E-001
    0.268020000000E+005    0.347873756476E-001
    0.268520000000E+005    0.348289261004E-001
    0.269020000000E+005    0.348702922325E-001
    0.269520000000E+005    0.349114742578E-001
    0.270020000000E+005    0.349524723927E-001
    0.270520000000E+005    0.349932868559E-001
    0.271020000000E+005    0.350339178681E-001
    0.271520000000E+005    0.350743656524E-001
    0.272020000000E+005    0.351146304338E-001
    0.272520000000E+005    0.351547124398E-001
    0.273020000000E+005    0.351946118995E-001
    0.273520000000E+005    0.352343290446E-001
    0.274020000000E+005    0.352738641085E-001
    0.274520000000E+005    0.353132173268E-001
    0.275020000000E+005    0.353523889371E-001
    0.275520000000E+005    0.353913791790E-001
    0.276020000000E+005    0.354301882939E-001
    0.276520000000E+005    0.354688165255E-001
    0.277020000000E+005    0.355072641190E-001
    0.277520000000E+005    0.355455313218E-001
    0.278020000000E+005    0.355836183831E-001
    0.278520000000E+005    0.356215255539E-001
    0.279020000000E+005    0.356592530871E-001
    0.279520000000E+005    0.356968012373E-001
    0.280020000000E+005    0.357341702609E-001
    0.280520000000E+005    0.357713604163E-001
    0.281020000000E+005    0.358083719634E-001
    0.281520000000E+005    0.358452051638E-001
    0.282020000000E+005    0.358818602809E-001
    0.282520000000E+005    0.359183375798E-001
    0.283020000000E+005    0.359546373272E-001
    0.283520000000E+005    0.359907597915E-001
    0.284020000000E+005    0.360267052425E-001
    0.284520000000E+005    0.360624739518E-001
    0.285020000000E+005    0.360980661926E-001
    0.285520000000E+005    0.361334822395E-001
    0.286020000000E+005    0.361687223688E-001
    0.286520000000E+005    0.362037868580E-001
    0.287020000000E+005    0.362386759865E-001
    0.287520000000E+005    0.362733900347E-001
    0.288020000000E+005    0.363079292850E-001
    0.288520000000E+005    0.363422940206E-001
    0.289020000000E+005    0.363764845267E-001
    0.289520000000E+005    0.364105010896E-001
    0.290020000000E+005    0.364443439968E-001
    0.290520000000E+005    0.364780135375E-001
    0.291020000000E+005    0.365115100020E-001
    0.291520000000E+005    0.365448336820E-001
    0.292020000000E+005    0.365779848703E-001
    0.292520000000E+005    0.366109638614E-001
    0.293020000000E+005    0.366437709505E-001
    0.293520000000E+005    0.366764064344E-001
    0.294020000000E+005    0.367088706111E-001
    0.294520000000E+005    0.367411637797E-001
    0.295020000000E+005    0.367732862404E-001
    0.295520000000E+005    0.368052382947E-001
    0.296020000000E+005    0.368370202452E-001
    0.296520000000E+005    0.368686323955E-001
    0.297020000000E+005    0.369000750504E-001
    0.297520000000E+005    0.369313485160E-001
    0.298020000000E+005    0.369624530990E-001
    0.298520000000E+005    0.369933891075E-001
    0.299020000000E+005    0.370241568505E-001
    0.299520000000E+005    0.370547566382E-001
    0.300020000000E+005    0.370851887814E-001
    0.300520000000E+005    0.371154535923E-001
    0.301020000000E+005    0.371455513838E-001
    0.301520000000E+005    0.371754824697E-001
    0.302020000000E+005    0.372052471651E-001
    0.302520000000E+005    0.372348457856E-001
    0.303020000000E+005    0.372642786479E-001
    0.303520000000E+005    0.372935460695E-001
    0.304020000000E+005    0.373226483688E-001
    0.304520000000E+005    0.373515858651E-001
    0.305020000000E+005    0.373803588784E-001
    0.305520000000E+005    0.374089677295E-001
    0.306020000000E+005    0.374374127401E-001
    0.306520000000E+005    0.374656942328E-001
    0.307020000000E+005    0.374938125306E-001
    0.307520000000E+005    0.375217679576E-001
    0.308020000000E+005    0.375495608385E-001
    0.308520000000E+005    0.375771914986E-001
    0.309020000000E+005    0.376046602641E-001
    0.309520000000E+005    0.376319674617E-001
    0.310020000000E+005    0.376591134190E-001
    0.310520000000E+005    0.376860984640E-001
    0.311020000000E+005    0.377129229255E-001
    0.311520000000E+005    0.377395871330E-001
    0.312020000000E+005    0.377660914164E-001
    0.312520000000E+005    0.377924361064E-001
    0.313020000000E+005    0.378186215340E-001
    0.313520000000E+005    0.378446480311E-001
    0.314020000000E+005    0.378705159299E-001
    0.314520000000E+005    0.378962255634E-001
    0.315020000000E+005    0.379217772648E-001
    0.315520000000E+005    0.379471713681E-001
    0.316020000000E+005    0.379724082077E-001
    0.316520000000E+005    0.379974881184E-001
    0.317020000000E+005    0.380224114356E-001
    0.317520000000E+005    0.380471784950E-001